/*--------------------------------*- C++ -*----------------------------------*\
  =========                 |
  \\      /  F ield         | OpenFOAM: The Open Source CFD Toolbox
   \\    /   O peration     | Website:  https://openfoam.org
    \\  /    A nd           | Version:  8
     \\/     M anipulation  |
\*---------------------------------------------------------------------------*/
FoamFile
{
    version     2.0;
    format      ascii;
    class       volSymmTensorField;
    location    "1";
    object      K;
}
// * * * * * * * * * * * * * * * * * * * * * * * * * * * * * * * * * * * * * //

dimensions      [0 2 0 0 0 0 0];

internalField   nonuniform List<symmTensor> 
20000
(
(4.77095e-09 0 0 4.77095e-09 0 4.77095e-09)
(1.50551e-08 0 0 1.50551e-08 0 1.50551e-08)
(4.32707e-08 0 0 4.32707e-08 0 4.32707e-08)
(4.63203e-08 0 0 4.63203e-08 0 4.63203e-08)
(1.10357e-08 0 0 1.10357e-08 0 1.10357e-08)
(7.72949e-10 0 0 7.72949e-10 0 7.72949e-10)
(3.8812e-11 0 0 3.8812e-11 0 3.8812e-11)
(3.43411e-12 0 0 3.43411e-12 0 3.43411e-12)
(7.99635e-13 0 0 7.99635e-13 0 7.99635e-13)
(4.33795e-13 0 0 4.33795e-13 0 4.33795e-13)
(4.13404e-13 0 0 4.13404e-13 0 4.13404e-13)
(6.19282e-13 0 0 6.19282e-13 0 6.19282e-13)
(1.55692e-12 0 0 1.55692e-12 0 1.55692e-12)
(6.62969e-12 0 0 6.62969e-12 0 6.62969e-12)
(3.87402e-11 0 0 3.87402e-11 0 3.87402e-11)
(2.18229e-10 0 0 2.18229e-10 0 2.18229e-10)
(8.82847e-10 0 0 8.82847e-10 0 8.82847e-10)
(2.25327e-09 0 0 2.25327e-09 0 2.25327e-09)
(3.56945e-09 0 0 3.56945e-09 0 3.56945e-09)
(3.57182e-09 0 0 3.57182e-09 0 3.57182e-09)
(2.42255e-09 0 0 2.42255e-09 0 2.42255e-09)
(1.3559e-09 0 0 1.3559e-09 0 1.3559e-09)
(8.48615e-10 0 0 8.48615e-10 0 8.48615e-10)
(7.63395e-10 0 0 7.63395e-10 0 7.63395e-10)
(1.0188e-09 0 0 1.0188e-09 0 1.0188e-09)
(1.66543e-09 0 0 1.66543e-09 0 1.66543e-09)
(2.59279e-09 0 0 2.59279e-09 0 2.59279e-09)
(3.29232e-09 0 0 3.29232e-09 0 3.29232e-09)
(3.20961e-09 0 0 3.20961e-09 0 3.20961e-09)
(2.21929e-09 0 0 2.21929e-09 0 2.21929e-09)
(9.55804e-10 0 0 9.55804e-10 0 9.55804e-10)
(2.48195e-10 0 0 2.48195e-10 0 2.48195e-10)
(5.01497e-11 0 0 5.01497e-11 0 5.01497e-11)
(1.34411e-11 0 0 1.34411e-11 0 1.34411e-11)
(8.15562e-12 0 0 8.15562e-12 0 8.15562e-12)
(1.37286e-11 0 0 1.37286e-11 0 1.37286e-11)
(5.1208e-11 0 0 5.1208e-11 0 5.1208e-11)
(2.71062e-10 0 0 2.71062e-10 0 2.71062e-10)
(1.39734e-09 0 0 1.39734e-09 0 1.39734e-09)
(5.75875e-09 0 0 5.75875e-09 0 5.75875e-09)
(1.69789e-08 0 0 1.69789e-08 0 1.69789e-08)
(3.20004e-08 0 0 3.20004e-08 0 3.20004e-08)
(3.70486e-08 0 0 3.70486e-08 0 3.70486e-08)
(3.11351e-08 0 0 3.11351e-08 0 3.11351e-08)
(2.65889e-08 0 0 2.65889e-08 0 2.65889e-08)
(2.97859e-08 0 0 2.97859e-08 0 2.97859e-08)
(4.19644e-08 0 0 4.19644e-08 0 4.19644e-08)
(5.7351e-08 0 0 5.7351e-08 0 5.7351e-08)
(6.45924e-08 0 0 6.45924e-08 0 6.45924e-08)
(6.79979e-08 0 0 6.79979e-08 0 6.79979e-08)
(8.53563e-08 0 0 8.53563e-08 0 8.53563e-08)
(1.2933e-07 0 0 1.2933e-07 0 1.2933e-07)
(1.72148e-07 0 0 1.72148e-07 0 1.72148e-07)
(1.44046e-07 0 0 1.44046e-07 0 1.44046e-07)
(7.87519e-08 0 0 7.87519e-08 0 7.87519e-08)
(4.24353e-08 0 0 4.24353e-08 0 4.24353e-08)
(3.20131e-08 0 0 3.20131e-08 0 3.20131e-08)
(3.06612e-08 0 0 3.06612e-08 0 3.06612e-08)
(2.42881e-08 0 0 2.42881e-08 0 2.42881e-08)
(1.25235e-08 0 0 1.25235e-08 0 1.25235e-08)
(5.5929e-09 0 0 5.5929e-09 0 5.5929e-09)
(3.78525e-09 0 0 3.78525e-09 0 3.78525e-09)
(5.00031e-09 0 0 5.00031e-09 0 5.00031e-09)
(9.39713e-09 0 0 9.39713e-09 0 9.39713e-09)
(1.47831e-08 0 0 1.47831e-08 0 1.47831e-08)
(1.64952e-08 0 0 1.64952e-08 0 1.64952e-08)
(1.85544e-08 0 0 1.85544e-08 0 1.85544e-08)
(3.19395e-08 0 0 3.19395e-08 0 3.19395e-08)
(7.71351e-08 0 0 7.71351e-08 0 7.71351e-08)
(1.33244e-07 0 0 1.33244e-07 0 1.33244e-07)
(7.66679e-08 0 0 7.66679e-08 0 7.66679e-08)
(1.14779e-08 0 0 1.14779e-08 0 1.14779e-08)
(7.31387e-10 0 0 7.31387e-10 0 7.31387e-10)
(5.33935e-11 0 0 5.33935e-11 0 5.33935e-11)
(1.27406e-11 0 0 1.27406e-11 0 1.27406e-11)
(2.00397e-11 0 0 2.00397e-11 0 2.00397e-11)
(2.15932e-10 0 0 2.15932e-10 0 2.15932e-10)
(7.27091e-09 0 0 7.27091e-09 0 7.27091e-09)
(1.86932e-07 0 0 1.86932e-07 0 1.86932e-07)
(9.29967e-07 0 0 9.29967e-07 0 9.29967e-07)
(5.22942e-07 0 0 5.22942e-07 0 5.22942e-07)
(6.08006e-08 0 0 6.08006e-08 0 6.08006e-08)
(4.98729e-09 0 0 4.98729e-09 0 4.98729e-09)
(7.23354e-10 0 0 7.23354e-10 0 7.23354e-10)
(2.0673e-10 0 0 2.0673e-10 0 2.0673e-10)
(8.27492e-11 0 0 8.27492e-11 0 8.27492e-11)
(4.50056e-11 0 0 4.50056e-11 0 4.50056e-11)
(5.73485e-11 0 0 5.73485e-11 0 5.73485e-11)
(2.89155e-10 0 0 2.89155e-10 0 2.89155e-10)
(4.07417e-09 0 0 4.07417e-09 0 4.07417e-09)
(4.13875e-08 0 0 4.13875e-08 0 4.13875e-08)
(6.94945e-08 0 0 6.94945e-08 0 6.94945e-08)
(1.28092e-08 0 0 1.28092e-08 0 1.28092e-08)
(7.36142e-10 0 0 7.36142e-10 0 7.36142e-10)
(7.29562e-11 0 0 7.29562e-11 0 7.29562e-11)
(3.73422e-11 0 0 3.73422e-11 0 3.73422e-11)
(8.11275e-11 0 0 8.11275e-11 0 8.11275e-11)
(2.55573e-10 0 0 2.55573e-10 0 2.55573e-10)
(4.58347e-10 0 0 4.58347e-10 0 4.58347e-10)
(4.15852e-10 0 0 4.15852e-10 0 4.15852e-10)
(3.26188e-10 0 0 3.26188e-10 0 3.26188e-10)
(3.67824e-10 0 0 3.67824e-10 0 3.67824e-10)
(6.03623e-10 0 0 6.03623e-10 0 6.03623e-10)
(1.01978e-09 0 0 1.01978e-09 0 1.01978e-09)
(1.40506e-09 0 0 1.40506e-09 0 1.40506e-09)
(1.75938e-09 0 0 1.75938e-09 0 1.75938e-09)
(2.43729e-09 0 0 2.43729e-09 0 2.43729e-09)
(3.36769e-09 0 0 3.36769e-09 0 3.36769e-09)
(3.08204e-09 0 0 3.08204e-09 0 3.08204e-09)
(1.44002e-09 0 0 1.44002e-09 0 1.44002e-09)
(4.67494e-10 0 0 4.67494e-10 0 4.67494e-10)
(2.18419e-10 0 0 2.18419e-10 0 2.18419e-10)
(2.4162e-10 0 0 2.4162e-10 0 2.4162e-10)
(5.07284e-10 0 0 5.07284e-10 0 5.07284e-10)
(9.90626e-10 0 0 9.90626e-10 0 9.90626e-10)
(1.1255e-09 0 0 1.1255e-09 0 1.1255e-09)
(9.33066e-10 0 0 9.33066e-10 0 9.33066e-10)
(1.01329e-09 0 0 1.01329e-09 0 1.01329e-09)
(1.77401e-09 0 0 1.77401e-09 0 1.77401e-09)
(3.25664e-09 0 0 3.25664e-09 0 3.25664e-09)
(3.76734e-09 0 0 3.76734e-09 0 3.76734e-09)
(3.1655e-09 0 0 3.1655e-09 0 3.1655e-09)
(4.14352e-09 0 0 4.14352e-09 0 4.14352e-09)
(1.38924e-08 0 0 1.38924e-08 0 1.38924e-08)
(6.87379e-08 0 0 6.87379e-08 0 6.87379e-08)
(1.373e-07 0 0 1.373e-07 0 1.373e-07)
(4.89778e-08 0 0 4.89778e-08 0 4.89778e-08)
(5.49464e-09 0 0 5.49464e-09 0 5.49464e-09)
(8.86358e-10 0 0 8.86358e-10 0 8.86358e-10)
(6.16711e-10 0 0 6.16711e-10 0 6.16711e-10)
(1.45682e-09 0 0 1.45682e-09 0 1.45682e-09)
(3.85826e-09 0 0 3.85826e-09 0 3.85826e-09)
(5.80141e-09 0 0 5.80141e-09 0 5.80141e-09)
(7.73224e-09 0 0 7.73224e-09 0 7.73224e-09)
(2.32451e-08 0 0 2.32451e-08 0 2.32451e-08)
(1.87108e-07 0 0 1.87108e-07 0 1.87108e-07)
(1.34885e-06 0 0 1.34885e-06 0 1.34885e-06)
(1.79321e-06 0 0 1.79321e-06 0 1.79321e-06)
(2.0111e-07 0 0 2.0111e-07 0 2.0111e-07)
(3.47032e-09 0 0 3.47032e-09 0 3.47032e-09)
(4.02298e-11 0 0 4.02298e-11 0 4.02298e-11)
(1.24422e-12 0 0 1.24422e-12 0 1.24422e-12)
(2.06134e-13 0 0 2.06134e-13 0 2.06134e-13)
(1.87009e-13 0 0 1.87009e-13 0 1.87009e-13)
(6.12801e-13 0 0 6.12801e-13 0 6.12801e-13)
(3.64525e-12 0 0 3.64525e-12 0 3.64525e-12)
(1.81767e-11 0 0 1.81767e-11 0 1.81767e-11)
(4.62569e-11 0 0 4.62569e-11 0 4.62569e-11)
(6.71504e-11 0 0 6.71504e-11 0 6.71504e-11)
(1.02255e-10 0 0 1.02255e-10 0 1.02255e-10)
(2.71484e-10 0 0 2.71484e-10 0 2.71484e-10)
(1.08285e-09 0 0 1.08285e-09 0 1.08285e-09)
(3.16779e-09 0 0 3.16779e-09 0 3.16779e-09)
(3.81053e-09 0 0 3.81053e-09 0 3.81053e-09)
(2.25585e-09 0 0 2.25585e-09 0 2.25585e-09)
(1.48033e-09 0 0 1.48033e-09 0 1.48033e-09)
(2.09917e-09 0 0 2.09917e-09 0 2.09917e-09)
(5.60372e-09 0 0 5.60372e-09 0 5.60372e-09)
(1.21481e-08 0 0 1.21481e-08 0 1.21481e-08)
(9.72355e-09 0 0 9.72355e-09 0 9.72355e-09)
(2.75386e-09 0 0 2.75386e-09 0 2.75386e-09)
(5.78223e-10 0 0 5.78223e-10 0 5.78223e-10)
(2.32164e-10 0 0 2.32164e-10 0 2.32164e-10)
(2.95276e-10 0 0 2.95276e-10 0 2.95276e-10)
(9.815e-10 0 0 9.815e-10 0 9.815e-10)
(4.27676e-09 0 0 4.27676e-09 0 4.27676e-09)
(1.10953e-08 0 0 1.10953e-08 0 1.10953e-08)
(9.9887e-09 0 0 9.9887e-09 0 9.9887e-09)
(2.87813e-09 0 0 2.87813e-09 0 2.87813e-09)
(4.11129e-10 0 0 4.11129e-10 0 4.11129e-10)
(6.63365e-11 0 0 6.63365e-11 0 6.63365e-11)
(2.84753e-11 0 0 2.84753e-11 0 2.84753e-11)
(4.99897e-11 0 0 4.99897e-11 0 4.99897e-11)
(2.679e-10 0 0 2.679e-10 0 2.679e-10)
(1.78976e-09 0 0 1.78976e-09 0 1.78976e-09)
(5.67503e-09 0 0 5.67503e-09 0 5.67503e-09)
(5.65899e-09 0 0 5.65899e-09 0 5.65899e-09)
(2.67646e-09 0 0 2.67646e-09 0 2.67646e-09)
(1.50171e-09 0 0 1.50171e-09 0 1.50171e-09)
(2.06848e-09 0 0 2.06848e-09 0 2.06848e-09)
(6.92242e-09 0 0 6.92242e-09 0 6.92242e-09)
(2.76919e-08 0 0 2.76919e-08 0 2.76919e-08)
(5.87168e-08 0 0 5.87168e-08 0 5.87168e-08)
(5.03424e-08 0 0 5.03424e-08 0 5.03424e-08)
(2.63881e-08 0 0 2.63881e-08 0 2.63881e-08)
(1.58152e-08 0 0 1.58152e-08 0 1.58152e-08)
(1.32343e-08 0 0 1.32343e-08 0 1.32343e-08)
(9.94587e-09 0 0 9.94587e-09 0 9.94587e-09)
(3.40041e-09 0 0 3.40041e-09 0 3.40041e-09)
(4.04889e-10 0 0 4.04889e-10 0 4.04889e-10)
(2.71061e-11 0 0 2.71061e-11 0 2.71061e-11)
(2.72227e-12 0 0 2.72227e-12 0 2.72227e-12)
(9.9955e-13 0 0 9.9955e-13 0 9.9955e-13)
(1.82331e-12 0 0 1.82331e-12 0 1.82331e-12)
(1.12411e-11 0 0 1.12411e-11 0 1.12411e-11)
(1.03447e-10 0 0 1.03447e-10 0 1.03447e-10)
(6.27066e-10 0 0 6.27066e-10 0 6.27066e-10)
(1.63705e-09 0 0 1.63705e-09 0 1.63705e-09)
(2.1456e-09 0 0 2.1456e-09 0 2.1456e-09)
(2.53681e-09 0 0 2.53681e-09 0 2.53681e-09)
(1.06179e-09 0 0 1.06179e-09 0 1.06179e-09)
(1.69207e-09 0 0 1.69207e-09 0 1.69207e-09)
(4.17601e-09 0 0 4.17601e-09 0 4.17601e-09)
(7.73479e-09 0 0 7.73479e-09 0 7.73479e-09)
(5.29497e-09 0 0 5.29497e-09 0 5.29497e-09)
(1.18061e-09 0 0 1.18061e-09 0 1.18061e-09)
(1.38483e-10 0 0 1.38483e-10 0 1.38483e-10)
(1.63363e-11 0 0 1.63363e-11 0 1.63363e-11)
(2.95168e-12 0 0 2.95168e-12 0 2.95168e-12)
(9.49797e-13 0 0 9.49797e-13 0 9.49797e-13)
(5.61666e-13 0 0 5.61666e-13 0 5.61666e-13)
(5.89627e-13 0 0 5.89627e-13 0 5.89627e-13)
(9.5905e-13 0 0 9.5905e-13 0 9.5905e-13)
(2.09475e-12 0 0 2.09475e-12 0 2.09475e-12)
(6.53079e-12 0 0 6.53079e-12 0 6.53079e-12)
(3.74774e-11 0 0 3.74774e-11 0 3.74774e-11)
(4.09174e-10 0 0 4.09174e-10 0 4.09174e-10)
(4.60203e-09 0 0 4.60203e-09 0 4.60203e-09)
(1.83166e-08 0 0 1.83166e-08 0 1.83166e-08)
(1.32232e-08 0 0 1.32232e-08 0 1.32232e-08)
(2.73392e-09 0 0 2.73392e-09 0 2.73392e-09)
(6.10658e-10 0 0 6.10658e-10 0 6.10658e-10)
(4.34043e-10 0 0 4.34043e-10 0 4.34043e-10)
(9.19901e-10 0 0 9.19901e-10 0 9.19901e-10)
(2.19237e-09 0 0 2.19237e-09 0 2.19237e-09)
(2.62371e-09 0 0 2.62371e-09 0 2.62371e-09)
(1.73805e-09 0 0 1.73805e-09 0 1.73805e-09)
(1.20459e-09 0 0 1.20459e-09 0 1.20459e-09)
(1.09417e-09 0 0 1.09417e-09 0 1.09417e-09)
(7.37705e-10 0 0 7.37705e-10 0 7.37705e-10)
(1.78486e-10 0 0 1.78486e-10 0 1.78486e-10)
(1.5869e-11 0 0 1.5869e-11 0 1.5869e-11)
(1.29525e-12 0 0 1.29525e-12 0 1.29525e-12)
(2.75064e-13 0 0 2.75064e-13 0 2.75064e-13)
(2.1681e-13 0 0 2.1681e-13 0 2.1681e-13)
(4.37307e-13 0 0 4.37307e-13 0 4.37307e-13)
(1.37905e-12 0 0 1.37905e-12 0 1.37905e-12)
(5.77087e-12 0 0 5.77087e-12 0 5.77087e-12)
(3.1732e-11 0 0 3.1732e-11 0 3.1732e-11)
(1.73194e-10 0 0 1.73194e-10 0 1.73194e-10)
(5.31485e-10 0 0 5.31485e-10 0 5.31485e-10)
(6.28678e-10 0 0 6.28678e-10 0 6.28678e-10)
(3.56571e-10 0 0 3.56571e-10 0 3.56571e-10)
(1.85457e-10 0 0 1.85457e-10 0 1.85457e-10)
(1.49385e-10 0 0 1.49385e-10 0 1.49385e-10)
(1.98988e-10 0 0 1.98988e-10 0 1.98988e-10)
(3.52897e-10 0 0 3.52897e-10 0 3.52897e-10)
(7.21507e-10 0 0 7.21507e-10 0 7.21507e-10)
(1.68047e-09 0 0 1.68047e-09 0 1.68047e-09)
(3.9344e-09 0 0 3.9344e-09 0 3.9344e-09)
(6.47989e-09 0 0 6.47989e-09 0 6.47989e-09)
(5.50629e-09 0 0 5.50629e-09 0 5.50629e-09)
(2.75643e-09 0 0 2.75643e-09 0 2.75643e-09)
(1.44953e-09 0 0 1.44953e-09 0 1.44953e-09)
(1.36864e-09 0 0 1.36864e-09 0 1.36864e-09)
(2.30265e-09 0 0 2.30265e-09 0 2.30265e-09)
(4.04879e-09 0 0 4.04879e-09 0 4.04879e-09)
(4.34411e-09 0 0 4.34411e-09 0 4.34411e-09)
(2.67543e-09 0 0 2.67543e-09 0 2.67543e-09)
(1.39489e-09 0 0 1.39489e-09 0 1.39489e-09)
(9.1815e-10 0 0 9.1815e-10 0 9.1815e-10)
(8.15897e-10 0 0 8.15897e-10 0 8.15897e-10)
(8.15138e-10 0 0 8.15138e-10 0 8.15138e-10)
(8.28164e-10 0 0 8.28164e-10 0 8.28164e-10)
(9.84478e-10 0 0 9.84478e-10 0 9.84478e-10)
(1.66431e-09 0 0 1.66431e-09 0 1.66431e-09)
(3.87534e-09 0 0 3.87534e-09 0 3.87534e-09)
(9.17478e-09 0 0 9.17478e-09 0 9.17478e-09)
(1.54118e-08 0 0 1.54118e-08 0 1.54118e-08)
(1.47362e-08 0 0 1.47362e-08 0 1.47362e-08)
(7.20327e-09 0 0 7.20327e-09 0 7.20327e-09)
(1.62686e-09 0 0 1.62686e-09 0 1.62686e-09)
(1.71371e-10 0 0 1.71371e-10 0 1.71371e-10)
(1.3062e-11 0 0 1.3062e-11 0 1.3062e-11)
(1.95354e-12 0 0 1.95354e-12 0 1.95354e-12)
(1.73044e-12 0 0 1.73044e-12 0 1.73044e-12)
(1.29291e-11 0 0 1.29291e-11 0 1.29291e-11)
(3.2339e-10 0 0 3.2339e-10 0 3.2339e-10)
(4.61622e-09 0 0 4.61622e-09 0 4.61622e-09)
(9.08421e-09 0 0 9.08421e-09 0 9.08421e-09)
(2.25694e-09 0 0 2.25694e-09 0 2.25694e-09)
(2.25234e-10 0 0 2.25234e-10 0 2.25234e-10)
(3.4972e-11 0 0 3.4972e-11 0 3.4972e-11)
(1.45987e-11 0 0 1.45987e-11 0 1.45987e-11)
(1.19761e-11 0 0 1.19761e-11 0 1.19761e-11)
(1.32327e-11 0 0 1.32327e-11 0 1.32327e-11)
(2.4839e-11 0 0 2.4839e-11 0 2.4839e-11)
(1.45516e-10 0 0 1.45516e-10 0 1.45516e-10)
(2.89898e-09 0 0 2.89898e-09 0 2.89898e-09)
(7.32252e-08 0 0 7.32252e-08 0 7.32252e-08)
(4.90256e-07 0 0 4.90256e-07 0 4.90256e-07)
(3.28066e-07 0 0 3.28066e-07 0 3.28066e-07)
(3.24466e-08 0 0 3.24466e-08 0 3.24466e-08)
(2.01046e-09 0 0 2.01046e-09 0 2.01046e-09)
(3.19837e-10 0 0 3.19837e-10 0 3.19837e-10)
(2.09589e-10 0 0 2.09589e-10 0 2.09589e-10)
(3.37974e-10 0 0 3.37974e-10 0 3.37974e-10)
(5.78512e-10 0 0 5.78512e-10 0 5.78512e-10)
(6.59667e-10 0 0 6.59667e-10 0 6.59667e-10)
(5.59933e-10 0 0 5.59933e-10 0 5.59933e-10)
(5.16511e-10 0 0 5.16511e-10 0 5.16511e-10)
(6.34802e-10 0 0 6.34802e-10 0 6.34802e-10)
(8.87666e-10 0 0 8.87666e-10 0 8.87666e-10)
(1.0117e-09 0 0 1.0117e-09 0 1.0117e-09)
(8.16048e-10 0 0 8.16048e-10 0 8.16048e-10)
(6.04406e-10 0 0 6.04406e-10 0 6.04406e-10)
(6.69743e-10 0 0 6.69743e-10 0 6.69743e-10)
(1.45717e-09 0 0 1.45717e-09 0 1.45717e-09)
(4.83647e-09 0 0 4.83647e-09 0 4.83647e-09)
(1.32727e-08 0 0 1.32727e-08 0 1.32727e-08)
(1.9161e-08 0 0 1.9161e-08 0 1.9161e-08)
(1.56325e-08 0 0 1.56325e-08 0 1.56325e-08)
(1.09771e-08 0 0 1.09771e-08 0 1.09771e-08)
(8.6153e-09 0 0 8.6153e-09 0 8.6153e-09)
(6.54138e-09 0 0 6.54138e-09 0 6.54138e-09)
(3.76599e-09 0 0 3.76599e-09 0 3.76599e-09)
(1.85109e-09 0 0 1.85109e-09 0 1.85109e-09)
(1.24028e-09 0 0 1.24028e-09 0 1.24028e-09)
(1.48748e-09 0 0 1.48748e-09 0 1.48748e-09)
(2.2758e-09 0 0 2.2758e-09 0 2.2758e-09)
(2.33605e-09 0 0 2.33605e-09 0 2.33605e-09)
(1.32787e-09 0 0 1.32787e-09 0 1.32787e-09)
(7.25143e-10 0 0 7.25143e-10 0 7.25143e-10)
(7.49838e-10 0 0 7.49838e-10 0 7.49838e-10)
(1.39478e-09 0 0 1.39478e-09 0 1.39478e-09)
(2.07903e-09 0 0 2.07903e-09 0 2.07903e-09)
(1.3604e-09 0 0 1.3604e-09 0 1.3604e-09)
(6.34476e-10 0 0 6.34476e-10 0 6.34476e-10)
(7.29692e-10 0 0 7.29692e-10 0 7.29692e-10)
(4.03651e-09 0 0 4.03651e-09 0 4.03651e-09)
(4.85934e-08 0 0 4.85934e-08 0 4.85934e-08)
(2.5121e-07 0 0 2.5121e-07 0 2.5121e-07)
(2.33811e-07 0 0 2.33811e-07 0 2.33811e-07)
(8.3814e-08 0 0 8.3814e-08 0 8.3814e-08)
(5.84652e-08 0 0 5.84652e-08 0 5.84652e-08)
(1.88236e-07 0 0 1.88236e-07 0 1.88236e-07)
(1.36093e-06 0 0 1.36093e-06 0 1.36093e-06)
(4.31688e-06 0 0 4.31688e-06 0 4.31688e-06)
(1.80927e-06 0 0 1.80927e-06 0 1.80927e-06)
(9.64215e-08 0 0 9.64215e-08 0 9.64215e-08)
(1.53986e-09 0 0 1.53986e-09 0 1.53986e-09)
(2.28751e-11 0 0 2.28751e-11 0 2.28751e-11)
(9.155e-13 0 0 9.155e-13 0 9.155e-13)
(2.26135e-13 0 0 2.26135e-13 0 2.26135e-13)
(4.37513e-13 0 0 4.37513e-13 0 4.37513e-13)
(3.21442e-12 0 0 3.21442e-12 0 3.21442e-12)
(2.14246e-11 0 0 2.14246e-11 0 2.14246e-11)
(4.26122e-11 0 0 4.26122e-11 0 4.26122e-11)
(2.93822e-11 0 0 2.93822e-11 0 2.93822e-11)
(2.37547e-11 0 0 2.37547e-11 0 2.37547e-11)
(6.15523e-11 0 0 6.15523e-11 0 6.15523e-11)
(3.81242e-10 0 0 3.81242e-10 0 3.81242e-10)
(1.5237e-09 0 0 1.5237e-09 0 1.5237e-09)
(1.51331e-09 0 0 1.51331e-09 0 1.51331e-09)
(5.51239e-10 0 0 5.51239e-10 0 5.51239e-10)
(2.68222e-10 0 0 2.68222e-10 0 2.68222e-10)
(4.07075e-10 0 0 4.07075e-10 0 4.07075e-10)
(1.30007e-09 0 0 1.30007e-09 0 1.30007e-09)
(2.8738e-09 0 0 2.8738e-09 0 2.8738e-09)
(2.25219e-09 0 0 2.25219e-09 0 2.25219e-09)
(8.63622e-10 0 0 8.63622e-10 0 8.63622e-10)
(3.68857e-10 0 0 3.68857e-10 0 3.68857e-10)
(2.91485e-10 0 0 2.91485e-10 0 2.91485e-10)
(3.99504e-10 0 0 3.99504e-10 0 3.99504e-10)
(7.2526e-10 0 0 7.2526e-10 0 7.2526e-10)
(1.5434e-09 0 0 1.5434e-09 0 1.5434e-09)
(3.56079e-09 0 0 3.56079e-09 0 3.56079e-09)
(6.42854e-09 0 0 6.42854e-09 0 6.42854e-09)
(5.40811e-09 0 0 5.40811e-09 0 5.40811e-09)
(1.66931e-09 0 0 1.66931e-09 0 1.66931e-09)
(2.90325e-10 0 0 2.90325e-10 0 2.90325e-10)
(7.23865e-11 0 0 7.23865e-11 0 7.23865e-11)
(5.86013e-11 0 0 5.86013e-11 0 5.86013e-11)
(1.79303e-10 0 0 1.79303e-10 0 1.79303e-10)
(1.16829e-09 0 0 1.16829e-09 0 1.16829e-09)
(6.62449e-09 0 0 6.62449e-09 0 6.62449e-09)
(1.66003e-08 0 0 1.66003e-08 0 1.66003e-08)
(1.64218e-08 0 0 1.64218e-08 0 1.64218e-08)
(9.98169e-09 0 0 9.98169e-09 0 9.98169e-09)
(7.07474e-09 0 0 7.07474e-09 0 7.07474e-09)
(8.20769e-09 0 0 8.20769e-09 0 8.20769e-09)
(1.22417e-08 0 0 1.22417e-08 0 1.22417e-08)
(1.28132e-08 0 0 1.28132e-08 0 1.28132e-08)
(6.38706e-09 0 0 6.38706e-09 0 6.38706e-09)
(1.94913e-09 0 0 1.94913e-09 0 1.94913e-09)
(7.39411e-10 0 0 7.39411e-10 0 7.39411e-10)
(5.82807e-10 0 0 5.82807e-10 0 5.82807e-10)
(8.01773e-10 0 0 8.01773e-10 0 8.01773e-10)
(9.47338e-10 0 0 9.47338e-10 0 9.47338e-10)
(5.24824e-10 0 0 5.24824e-10 0 5.24824e-10)
(1.36672e-10 0 0 1.36672e-10 0 1.36672e-10)
(2.93399e-11 0 0 2.93399e-11 0 2.93399e-11)
(1.02271e-11 0 0 1.02271e-11 0 1.02271e-11)
(8.69648e-12 0 0 8.69648e-12 0 8.69648e-12)
(1.86219e-11 0 0 1.86219e-11 0 1.86219e-11)
(7.57271e-11 0 0 7.57271e-11 0 7.57271e-11)
(3.5078e-10 0 0 3.5078e-10 0 3.5078e-10)
(1.04421e-09 0 0 1.04421e-09 0 1.04421e-09)
(1.45998e-09 0 0 1.45998e-09 0 1.45998e-09)
(1.19134e-09 0 0 1.19134e-09 0 1.19134e-09)
(1.04464e-10 0 0 1.04464e-10 0 1.04464e-10)
(6.73985e-11 0 0 6.73985e-11 0 6.73985e-11)
(1.0069e-10 0 0 1.0069e-10 0 1.0069e-10)
(3.04565e-10 0 0 3.04565e-10 0 3.04565e-10)
(8.6082e-10 0 0 8.6082e-10 0 8.6082e-10)
(1.13117e-09 0 0 1.13117e-09 0 1.13117e-09)
(6.14557e-10 0 0 6.14557e-10 0 6.14557e-10)
(2.02733e-10 0 0 2.02733e-10 0 2.02733e-10)
(6.68044e-11 0 0 6.68044e-11 0 6.68044e-11)
(3.10388e-11 0 0 3.10388e-11 0 3.10388e-11)
(2.3216e-11 0 0 2.3216e-11 0 2.3216e-11)
(2.56453e-11 0 0 2.56453e-11 0 2.56453e-11)
(3.20764e-11 0 0 3.20764e-11 0 3.20764e-11)
(3.65747e-11 0 0 3.65747e-11 0 3.65747e-11)
(4.4494e-11 0 0 4.4494e-11 0 4.4494e-11)
(9.87495e-11 0 0 9.87495e-11 0 9.87495e-11)
(5.84119e-10 0 0 5.84119e-10 0 5.84119e-10)
(6.16071e-09 0 0 6.16071e-09 0 6.16071e-09)
(3.79239e-08 0 0 3.79239e-08 0 3.79239e-08)
(5.4098e-08 0 0 5.4098e-08 0 5.4098e-08)
(2.12871e-08 0 0 2.12871e-08 0 2.12871e-08)
(7.43553e-09 0 0 7.43553e-09 0 7.43553e-09)
(6.68437e-09 0 0 6.68437e-09 0 6.68437e-09)
(1.52554e-08 0 0 1.52554e-08 0 1.52554e-08)
(3.47231e-08 0 0 3.47231e-08 0 3.47231e-08)
(3.48453e-08 0 0 3.48453e-08 0 3.48453e-08)
(1.57769e-08 0 0 1.57769e-08 0 1.57769e-08)
(5.47611e-09 0 0 5.47611e-09 0 5.47611e-09)
(1.78548e-09 0 0 1.78548e-09 0 1.78548e-09)
(3.81649e-10 0 0 3.81649e-10 0 3.81649e-10)
(4.01975e-11 0 0 4.01975e-11 0 4.01975e-11)
(3.24412e-12 0 0 3.24412e-12 0 3.24412e-12)
(5.20983e-13 0 0 5.20983e-13 0 5.20983e-13)
(3.01761e-13 0 0 3.01761e-13 0 3.01761e-13)
(4.84376e-13 0 0 4.84376e-13 0 4.84376e-13)
(1.08681e-12 0 0 1.08681e-12 0 1.08681e-12)
(2.46726e-12 0 0 2.46726e-12 0 2.46726e-12)
(6.86979e-12 0 0 6.86979e-12 0 6.86979e-12)
(2.62231e-11 0 0 2.62231e-11 0 2.62231e-11)
(8.64213e-11 0 0 8.64213e-11 0 8.64213e-11)
(1.21161e-10 0 0 1.21161e-10 0 1.21161e-10)
(6.15845e-11 0 0 6.15845e-11 0 6.15845e-11)
(2.18373e-11 0 0 2.18373e-11 0 2.18373e-11)
(1.24369e-11 0 0 1.24369e-11 0 1.24369e-11)
(1.39483e-11 0 0 1.39483e-11 0 1.39483e-11)
(1.91663e-11 0 0 1.91663e-11 0 1.91663e-11)
(2.07039e-11 0 0 2.07039e-11 0 2.07039e-11)
(2.01949e-11 0 0 2.01949e-11 0 2.01949e-11)
(2.76454e-11 0 0 2.76454e-11 0 2.76454e-11)
(5.46535e-11 0 0 5.46535e-11 0 5.46535e-11)
(8.70004e-11 0 0 8.70004e-11 0 8.70004e-11)
(6.26315e-11 0 0 6.26315e-11 0 6.26315e-11)
(2.37192e-11 0 0 2.37192e-11 0 2.37192e-11)
(1.09489e-11 0 0 1.09489e-11 0 1.09489e-11)
(1.32535e-11 0 0 1.32535e-11 0 1.32535e-11)
(4.46646e-11 0 0 4.46646e-11 0 4.46646e-11)
(2.48825e-10 0 0 2.48825e-10 0 2.48825e-10)
(1.35996e-09 0 0 1.35996e-09 0 1.35996e-09)
(5.72375e-09 0 0 5.72375e-09 0 5.72375e-09)
(1.50802e-08 0 0 1.50802e-08 0 1.50802e-08)
(1.66301e-08 0 0 1.66301e-08 0 1.66301e-08)
(5.6887e-09 0 0 5.6887e-09 0 5.6887e-09)
(8.66527e-10 0 0 8.66527e-10 0 8.66527e-10)
(1.70439e-10 0 0 1.70439e-10 0 1.70439e-10)
(1.18813e-10 0 0 1.18813e-10 0 1.18813e-10)
(3.16517e-10 0 0 3.16517e-10 0 3.16517e-10)
(1.2829e-09 0 0 1.2829e-09 0 1.2829e-09)
(2.76636e-09 0 0 2.76636e-09 0 2.76636e-09)
(2.39732e-09 0 0 2.39732e-09 0 2.39732e-09)
(1.37703e-09 0 0 1.37703e-09 0 1.37703e-09)
(8.47748e-10 0 0 8.47748e-10 0 8.47748e-10)
(4.70623e-10 0 0 4.70623e-10 0 4.70623e-10)
(1.37832e-10 0 0 1.37832e-10 0 1.37832e-10)
(2.08555e-11 0 0 2.08555e-11 0 2.08555e-11)
(4.0155e-12 0 0 4.0155e-12 0 4.0155e-12)
(3.17476e-12 0 0 3.17476e-12 0 3.17476e-12)
(1.40836e-11 0 0 1.40836e-11 0 1.40836e-11)
(1.3094e-10 0 0 1.3094e-10 0 1.3094e-10)
(5.62629e-10 0 0 5.62629e-10 0 5.62629e-10)
(5.16534e-10 0 0 5.16534e-10 0 5.16534e-10)
(1.68857e-10 0 0 1.68857e-10 0 1.68857e-10)
(6.06014e-11 0 0 6.06014e-11 0 6.06014e-11)
(4.36867e-11 0 0 4.36867e-11 0 4.36867e-11)
(4.47642e-11 0 0 4.47642e-11 0 4.47642e-11)
(3.49473e-11 0 0 3.49473e-11 0 3.49473e-11)
(2.25019e-11 0 0 2.25019e-11 0 2.25019e-11)
(3.06649e-11 0 0 3.06649e-11 0 3.06649e-11)
(2.14194e-10 0 0 2.14194e-10 0 2.14194e-10)
(5.87769e-09 0 0 5.87769e-09 0 5.87769e-09)
(1.38592e-07 0 0 1.38592e-07 0 1.38592e-07)
(5.25803e-07 0 0 5.25803e-07 0 5.25803e-07)
(1.93826e-07 0 0 1.93826e-07 0 1.93826e-07)
(1.91741e-08 0 0 1.91741e-08 0 1.91741e-08)
(2.61792e-09 0 0 2.61792e-09 0 2.61792e-09)
(1.31657e-09 0 0 1.31657e-09 0 1.31657e-09)
(1.95707e-09 0 0 1.95707e-09 0 1.95707e-09)
(3.4451e-09 0 0 3.4451e-09 0 3.4451e-09)
(3.62147e-09 0 0 3.62147e-09 0 3.62147e-09)
(2.35021e-09 0 0 2.35021e-09 0 2.35021e-09)
(1.58024e-09 0 0 1.58024e-09 0 1.58024e-09)
(1.69427e-09 0 0 1.69427e-09 0 1.69427e-09)
(2.83595e-09 0 0 2.83595e-09 0 2.83595e-09)
(4.90272e-09 0 0 4.90272e-09 0 4.90272e-09)
(5.50397e-09 0 0 5.50397e-09 0 5.50397e-09)
(3.4083e-09 0 0 3.4083e-09 0 3.4083e-09)
(1.55226e-09 0 0 1.55226e-09 0 1.55226e-09)
(9.30774e-10 0 0 9.30774e-10 0 9.30774e-10)
(1.17437e-09 0 0 1.17437e-09 0 1.17437e-09)
(3.00019e-09 0 0 3.00019e-09 0 3.00019e-09)
(8.68041e-09 0 0 8.68041e-09 0 8.68041e-09)
(1.4065e-08 0 0 1.4065e-08 0 1.4065e-08)
(9.56473e-09 0 0 9.56473e-09 0 9.56473e-09)
(3.65436e-09 0 0 3.65436e-09 0 3.65436e-09)
(1.32498e-09 0 0 1.32498e-09 0 1.32498e-09)
(6.07726e-10 0 0 6.07726e-10 0 6.07726e-10)
(3.34658e-10 0 0 3.34658e-10 0 3.34658e-10)
(1.99875e-10 0 0 1.99875e-10 0 1.99875e-10)
(1.42117e-10 0 0 1.42117e-10 0 1.42117e-10)
(1.39829e-10 0 0 1.39829e-10 0 1.39829e-10)
(1.71174e-10 0 0 1.71174e-10 0 1.71174e-10)
(1.78631e-10 0 0 1.78631e-10 0 1.78631e-10)
(1.21548e-10 0 0 1.21548e-10 0 1.21548e-10)
(6.36846e-11 0 0 6.36846e-11 0 6.36846e-11)
(3.94632e-11 0 0 3.94632e-11 0 3.94632e-11)
(3.55353e-11 0 0 3.55353e-11 0 3.55353e-11)
(3.81532e-11 0 0 3.81532e-11 0 3.81532e-11)
(3.94942e-11 0 0 3.94942e-11 0 3.94942e-11)
(5.00449e-11 0 0 5.00449e-11 0 5.00449e-11)
(1.35388e-10 0 0 1.35388e-10 0 1.35388e-10)
(9.26824e-10 0 0 9.26824e-10 0 9.26824e-10)
(8.09383e-09 0 0 8.09383e-09 0 8.09383e-09)
(2.9516e-08 0 0 2.9516e-08 0 2.9516e-08)
(2.56819e-08 0 0 2.56819e-08 0 2.56819e-08)
(9.16577e-09 0 0 9.16577e-09 0 9.16577e-09)
(4.3256e-09 0 0 4.3256e-09 0 4.3256e-09)
(6.01114e-09 0 0 6.01114e-09 0 6.01114e-09)
(2.16794e-08 0 0 2.16794e-08 0 2.16794e-08)
(9.26786e-08 0 0 9.26786e-08 0 9.26786e-08)
(2.07233e-07 0 0 2.07233e-07 0 2.07233e-07)
(1.48986e-07 0 0 1.48986e-07 0 1.48986e-07)
(3.12709e-08 0 0 3.12709e-08 0 3.12709e-08)
(2.75358e-09 0 0 2.75358e-09 0 2.75358e-09)
(2.51978e-10 0 0 2.51978e-10 0 2.51978e-10)
(7.5762e-11 0 0 7.5762e-11 0 7.5762e-11)
(1.35213e-10 0 0 1.35213e-10 0 1.35213e-10)
(7.71282e-10 0 0 7.71282e-10 0 7.71282e-10)
(3.17657e-09 0 0 3.17657e-09 0 3.17657e-09)
(3.14643e-09 0 0 3.14643e-09 0 3.14643e-09)
(9.95296e-10 0 0 9.95296e-10 0 9.95296e-10)
(3.74978e-10 0 0 3.74978e-10 0 3.74978e-10)
(4.34577e-10 0 0 4.34577e-10 0 4.34577e-10)
(1.03635e-09 0 0 1.03635e-09 0 1.03635e-09)
(1.42204e-09 0 0 1.42204e-09 0 1.42204e-09)
(5.26224e-10 0 0 5.26224e-10 0 5.26224e-10)
(8.94252e-11 0 0 8.94252e-11 0 8.94252e-11)
(2.32561e-11 0 0 2.32561e-11 0 2.32561e-11)
(1.7776e-11 0 0 1.7776e-11 0 1.7776e-11)
(2.78299e-11 0 0 2.78299e-11 0 2.78299e-11)
(4.39147e-11 0 0 4.39147e-11 0 4.39147e-11)
(5.76922e-11 0 0 5.76922e-11 0 5.76922e-11)
(9.24106e-11 0 0 9.24106e-11 0 9.24106e-11)
(2.39616e-10 0 0 2.39616e-10 0 2.39616e-10)
(7.67442e-10 0 0 7.67442e-10 0 7.67442e-10)
(1.82429e-09 0 0 1.82429e-09 0 1.82429e-09)
(2.81238e-09 0 0 2.81238e-09 0 2.81238e-09)
(3.93799e-09 0 0 3.93799e-09 0 3.93799e-09)
(6.69036e-09 0 0 6.69036e-09 0 6.69036e-09)
(1.13272e-08 0 0 1.13272e-08 0 1.13272e-08)
(1.18659e-08 0 0 1.18659e-08 0 1.18659e-08)
(6.45327e-09 0 0 6.45327e-09 0 6.45327e-09)
(2.60249e-09 0 0 2.60249e-09 0 2.60249e-09)
(1.29938e-09 0 0 1.29938e-09 0 1.29938e-09)
(9.53493e-10 0 0 9.53493e-10 0 9.53493e-10)
(8.27876e-10 0 0 8.27876e-10 0 8.27876e-10)
(6.71687e-10 0 0 6.71687e-10 0 6.71687e-10)
(5.21898e-10 0 0 5.21898e-10 0 5.21898e-10)
(4.66848e-10 0 0 4.66848e-10 0 4.66848e-10)
(5.27346e-10 0 0 5.27346e-10 0 5.27346e-10)
(7.11293e-10 0 0 7.11293e-10 0 7.11293e-10)
(1.04761e-09 0 0 1.04761e-09 0 1.04761e-09)
(1.5091e-09 0 0 1.5091e-09 0 1.5091e-09)
(1.64398e-09 0 0 1.64398e-09 0 1.64398e-09)
(9.35717e-10 0 0 9.35717e-10 0 9.35717e-10)
(2.45545e-10 0 0 2.45545e-10 0 2.45545e-10)
(4.69551e-11 0 0 4.69551e-11 0 4.69551e-11)
(1.54718e-11 0 0 1.54718e-11 0 1.54718e-11)
(1.58569e-11 0 0 1.58569e-11 0 1.58569e-11)
(4.15618e-11 0 0 4.15618e-11 0 4.15618e-11)
(1.27015e-10 0 0 1.27015e-10 0 1.27015e-10)
(2.30059e-10 0 0 2.30059e-10 0 2.30059e-10)
(2.20201e-10 0 0 2.20201e-10 0 2.20201e-10)
(1.44058e-10 0 0 1.44058e-10 0 1.44058e-10)
(7.74355e-11 0 0 7.74355e-11 0 7.74355e-11)
(3.51665e-11 0 0 3.51665e-11 0 3.51665e-11)
(1.61878e-11 0 0 1.61878e-11 0 1.61878e-11)
(1.21202e-11 0 0 1.21202e-11 0 1.21202e-11)
(2.13331e-11 0 0 2.13331e-11 0 2.13331e-11)
(6.83001e-11 0 0 6.83001e-11 0 6.83001e-11)
(1.75745e-10 0 0 1.75745e-10 0 1.75745e-10)
(1.90641e-10 0 0 1.90641e-10 0 1.90641e-10)
(7.3686e-11 0 0 7.3686e-11 0 7.3686e-11)
(6.80068e-11 0 0 6.80068e-11 0 6.80068e-11)
(1.09717e-10 0 0 1.09717e-10 0 1.09717e-10)
(3.15158e-10 0 0 3.15158e-10 0 3.15158e-10)
(9.90209e-10 0 0 9.90209e-10 0 9.90209e-10)
(2.18327e-09 0 0 2.18327e-09 0 2.18327e-09)
(3.15585e-09 0 0 3.15585e-09 0 3.15585e-09)
(3.45325e-09 0 0 3.45325e-09 0 3.45325e-09)
(2.99659e-09 0 0 2.99659e-09 0 2.99659e-09)
(1.90389e-09 0 0 1.90389e-09 0 1.90389e-09)
(8.86011e-10 0 0 8.86011e-10 0 8.86011e-10)
(3.5658e-10 0 0 3.5658e-10 0 3.5658e-10)
(1.49551e-10 0 0 1.49551e-10 0 1.49551e-10)
(7.27863e-11 0 0 7.27863e-11 0 7.27863e-11)
(4.90539e-11 0 0 4.90539e-11 0 4.90539e-11)
(6.80186e-11 0 0 6.80186e-11 0 6.80186e-11)
(2.84852e-10 0 0 2.84852e-10 0 2.84852e-10)
(3.0962e-09 0 0 3.0962e-09 0 3.0962e-09)
(3.55736e-08 0 0 3.55736e-08 0 3.55736e-08)
(1.39644e-07 0 0 1.39644e-07 0 1.39644e-07)
(1.14718e-07 0 0 1.14718e-07 0 1.14718e-07)
(3.36462e-08 0 0 3.36462e-08 0 3.36462e-08)
(1.03309e-08 0 0 1.03309e-08 0 1.03309e-08)
(7.1665e-09 0 0 7.1665e-09 0 7.1665e-09)
(1.17453e-08 0 0 1.17453e-08 0 1.17453e-08)
(2.89103e-08 0 0 2.89103e-08 0 2.89103e-08)
(6.16051e-08 0 0 6.16051e-08 0 6.16051e-08)
(6.77279e-08 0 0 6.77279e-08 0 6.77279e-08)
(2.35438e-08 0 0 2.35438e-08 0 2.35438e-08)
(2.0684e-09 0 0 2.0684e-09 0 2.0684e-09)
(7.20757e-11 0 0 7.20757e-11 0 7.20757e-11)
(3.12629e-12 0 0 3.12629e-12 0 3.12629e-12)
(5.3972e-13 0 0 5.3972e-13 0 5.3972e-13)
(5.16993e-13 0 0 5.16993e-13 0 5.16993e-13)
(1.42206e-12 0 0 1.42206e-12 0 1.42206e-12)
(4.41753e-12 0 0 4.41753e-12 0 4.41753e-12)
(1.04896e-11 0 0 1.04896e-11 0 1.04896e-11)
(2.33937e-11 0 0 2.33937e-11 0 2.33937e-11)
(5.72021e-11 0 0 5.72021e-11 0 5.72021e-11)
(1.07974e-10 0 0 1.07974e-10 0 1.07974e-10)
(9.46e-11 0 0 9.46e-11 0 9.46e-11)
(4.03419e-11 0 0 4.03419e-11 0 4.03419e-11)
(1.76495e-11 0 0 1.76495e-11 0 1.76495e-11)
(1.6793e-11 0 0 1.6793e-11 0 1.6793e-11)
(3.45548e-11 0 0 3.45548e-11 0 3.45548e-11)
(7.48103e-11 0 0 7.48103e-11 0 7.48103e-11)
(8.86811e-11 0 0 8.86811e-11 0 8.86811e-11)
(5.92978e-11 0 0 5.92978e-11 0 5.92978e-11)
(3.72742e-11 0 0 3.72742e-11 0 3.72742e-11)
(3.01718e-11 0 0 3.01718e-11 0 3.01718e-11)
(2.60502e-11 0 0 2.60502e-11 0 2.60502e-11)
(1.73457e-11 0 0 1.73457e-11 0 1.73457e-11)
(9.33206e-12 0 0 9.33206e-12 0 9.33206e-12)
(6.2786e-12 0 0 6.2786e-12 0 6.2786e-12)
(7.95266e-12 0 0 7.95266e-12 0 7.95266e-12)
(2.07023e-11 0 0 2.07023e-11 0 2.07023e-11)
(9.77045e-11 0 0 9.77045e-11 0 9.77045e-11)
(7.16337e-10 0 0 7.16337e-10 0 7.16337e-10)
(6.07371e-09 0 0 6.07371e-09 0 6.07371e-09)
(3.13003e-08 0 0 3.13003e-08 0 3.13003e-08)
(4.56339e-08 0 0 4.56339e-08 0 4.56339e-08)
(1.55045e-08 0 0 1.55045e-08 0 1.55045e-08)
(2.74646e-09 0 0 2.74646e-09 0 2.74646e-09)
(9.18962e-10 0 0 9.18962e-10 0 9.18962e-10)
(1.08946e-09 0 0 1.08946e-09 0 1.08946e-09)
(2.42249e-09 0 0 2.42249e-09 0 2.42249e-09)
(2.90668e-09 0 0 2.90668e-09 0 2.90668e-09)
(1.07758e-09 0 0 1.07758e-09 0 1.07758e-09)
(2.46301e-10 0 0 2.46301e-10 0 2.46301e-10)
(1.08786e-10 0 0 1.08786e-10 0 1.08786e-10)
(1.26746e-10 0 0 1.26746e-10 0 1.26746e-10)