/*--------------------------------*- C++ -*----------------------------------*\
  =========                 |
  \\      /  F ield         | OpenFOAM: The Open Source CFD Toolbox
   \\    /   O peration     | Website:  https://openfoam.org
    \\  /    A nd           | Version:  8
     \\/     M anipulation  |
\*---------------------------------------------------------------------------*/
FoamFile
{
    version     2.0;
    format      ascii;
    class       surfaceSymmTensorField;
    location    "1";
    object      Mf;
}
// * * * * * * * * * * * * * * * * * * * * * * * * * * * * * * * * * * * * * //

dimensions      [-1 3 1 0 0 0 0];

internalField   nonuniform List<symmTensor> 
39700
(
(7.24573e-06 0 0 7.24573e-06 0 7.24573e-06)
(1.737e-06 0 0 1.737e-06 0 1.737e-06)
(2.23381e-05 0 0 2.23381e-05 0 2.23381e-05)
(3.04222e-06 0 0 3.04222e-06 0 3.04222e-06)
(4.47436e-05 0 0 4.47436e-05 0 4.47436e-05)
(7.61692e-06 0 0 7.61692e-06 0 7.61692e-06)
(1.78247e-05 0 0 1.78247e-05 0 1.78247e-05)
(1.3256e-05 0 0 1.3256e-05 0 1.3256e-05)
(1.44471e-06 0 0 1.44471e-06 0 1.44471e-06)
(7.15631e-06 0 0 7.15631e-06 0 7.15631e-06)
(7.39126e-08 0 0 7.39126e-08 0 7.39126e-08)
(9.34245e-07 0 0 9.34245e-07 0 9.34245e-07)
(6.30991e-09 0 0 6.30991e-09 0 6.30991e-09)
(6.06312e-08 0 0 6.06312e-08 0 6.06312e-08)
(1.29721e-09 0 0 1.29721e-09 0 1.29721e-09)
(5.67521e-09 0 0 5.67521e-09 0 5.67521e-09)
(5.6246e-10 0 0 5.6246e-10 0 5.6246e-10)
(1.25837e-09 0 0 1.25837e-09 0 1.25837e-09)
(4.23354e-10 0 0 4.23354e-10 0 4.23354e-10)
(5.95576e-10 0 0 5.95576e-10 0 5.95576e-10)
(4.95821e-10 0 0 4.95821e-10 0 4.95821e-10)
(4.76263e-10 0 0 4.76263e-10 0 4.76263e-10)
(8.86106e-10 0 0 8.86106e-10 0 8.86106e-10)
(6.04091e-10 0 0 6.04091e-10 0 6.04091e-10)
(2.52165e-09 0 0 2.52165e-09 0 2.52165e-09)
(1.18695e-09 0 0 1.18695e-09 0 1.18695e-09)
(1.13218e-08 0 0 1.13218e-08 0 1.13218e-08)
(3.1836e-09 0 0 3.1836e-09 0 3.1836e-09)
(6.57996e-08 0 0 6.57996e-08 0 6.57996e-08)
(1.11773e-08 0 0 1.11773e-08 0 1.11773e-08)
(3.49954e-07 0 0 3.49954e-07 0 3.49954e-07)
(6.39691e-08 0 0 6.39691e-08 0 6.39691e-08)
(1.26863e-06 0 0 1.26863e-06 0 1.26863e-06)
(5.59183e-07 0 0 5.59183e-07 0 5.59183e-07)
(2.7626e-06 0 0 2.7626e-06 0 2.7626e-06)
(3.02528e-06 0 0 3.02528e-06 0 3.02528e-06)
(3.57063e-06 0 0 3.57063e-06 0 3.57063e-06)
(5.9746e-06 0 0 5.9746e-06 0 5.9746e-06)
(2.88701e-06 0 0 2.88701e-06 0 2.88701e-06)
(5.62439e-06 0 0 5.62439e-06 0 5.62439e-06)
(1.73867e-06 0 0 1.73867e-06 0 1.73867e-06)
(2.56883e-06 0 0 2.56883e-06 0 2.56883e-06)
(1.04389e-06 0 0 1.04389e-06 0 1.04389e-06)
(8.42071e-07 0 0 8.42071e-07 0 8.42071e-07)
(8.03752e-07 0 0 8.03752e-07 0 8.03752e-07)
(5.74331e-07 0 0 5.74331e-07 0 5.74331e-07)
(8.72797e-07 0 0 8.72797e-07 0 8.72797e-07)
(8.34372e-07 0 0 8.34372e-07 0 8.34372e-07)
(1.26423e-06 0 0 1.26423e-06 0 1.26423e-06)
(1.39114e-06 0 0 1.39114e-06 0 1.39114e-06)
(2.02813e-06 0 0 2.02813e-06 0 2.02813e-06)
(2.03752e-06 0 0 2.03752e-06 0 2.03752e-06)
(2.90098e-06 0 0 2.90098e-06 0 2.90098e-06)
(2.08107e-06 0 0 2.08107e-06 0 2.08107e-06)
(3.25044e-06 0 0 3.25044e-06 0 3.25044e-06)
(1.76383e-06 0 0 1.76383e-06 0 1.76383e-06)
(2.62412e-06 0 0 2.62412e-06 0 2.62412e-06)
(1.63199e-06 0 0 1.63199e-06 0 1.63199e-06)
(1.33615e-06 0 0 1.33615e-06 0 1.33615e-06)
(1.10733e-06 0 0 1.10733e-06 0 1.10733e-06)
(3.94063e-07 0 0 3.94063e-07 0 3.94063e-07)
(3.00801e-07 0 0 3.00801e-07 0 3.00801e-07)
(8.34398e-08 0 0 8.34398e-08 0 8.34398e-08)
(2.98307e-08 0 0 2.98307e-08 0 2.98307e-08)
(2.12001e-08 0 0 2.12001e-08 0 2.12001e-08)
(2.52528e-09 0 0 2.52528e-09 0 2.52528e-09)
(1.01516e-08 0 0 1.01516e-08 0 1.01516e-08)
(5.39096e-10 0 0 5.39096e-10 0 5.39096e-10)
(1.02325e-08 0 0 1.02325e-08 0 1.02325e-08)
(4.22391e-10 0 0 4.22391e-10 0 4.22391e-10)
(2.16523e-08 0 0 2.16523e-08 0 2.16523e-08)
(8.47614e-10 0 0 8.47614e-10 0 8.47614e-10)
(8.61423e-08 0 0 8.61423e-08 0 8.61423e-08)
(2.68577e-09 0 0 2.68577e-09 0 2.68577e-09)
(4.54046e-07 0 0 4.54046e-07 0 4.54046e-07)
(1.13011e-08 0 0 1.13011e-08 0 1.13011e-08)
(2.24897e-06 0 0 2.24897e-06 0 2.24897e-06)
(6.20548e-08 0 0 6.20548e-08 0 6.20548e-08)
(8.60047e-06 0 0 8.60047e-06 0 8.60047e-06)
(3.36275e-07 0 0 3.36275e-07 0 3.36275e-07)
(2.21862e-05 0 0 2.21862e-05 0 2.21862e-05)
(1.03071e-06 0 0 1.03071e-06 0 1.03071e-06)
(3.434e-05 0 0 3.434e-05 0 3.434e-05)
(1.23313e-06 0 0 1.23313e-06 0 1.23313e-06)
(3.38354e-05 0 0 3.38354e-05 0 3.38354e-05)
(7.06344e-07 0 0 7.06344e-07 0 7.06344e-07)
(2.8683e-05 0 0 2.8683e-05 0 2.8683e-05)
(3.68718e-07 0 0 3.68718e-07 0 3.68718e-07)
(2.80967e-05 0 0 2.80967e-05 0 2.80967e-05)
(2.97101e-07 0 0 2.97101e-07 0 2.97101e-07)
(3.48416e-05 0 0 3.48416e-05 0 3.48416e-05)
(3.95335e-07 0 0 3.95335e-07 0 3.95335e-07)
(4.84658e-05 0 0 4.84658e-05 0 4.84658e-05)
(6.99908e-07 0 0 6.99908e-07 0 6.99908e-07)
(6.07567e-05 0 0 6.07567e-05 0 6.07567e-05)
(1.42509e-06 0 0 1.42509e-06 0 1.42509e-06)
(6.62514e-05 0 0 6.62514e-05 0 6.62514e-05)
(3.27572e-06 0 0 3.27572e-06 0 3.27572e-06)
(7.56947e-05 0 0 7.56947e-05 0 7.56947e-05)
(7.43841e-06 0 0 7.43841e-06 0 7.43841e-06)
(0.00010284 0 0 0.00010284 0 0.00010284)
(1.20453e-05 0 0 1.20453e-05 0 1.20453e-05)
(0.000147698 0 0 0.000147698 0 0.000147698)
(1.05629e-05 0 0 1.05629e-05 0 1.05629e-05)
(0.000156848 0 0 0.000156848 0 0.000156848)
(5.42598e-06 0 0 5.42598e-06 0 5.42598e-06)
(0.000101831 0 0 0.000101831 0 0.000101831)
(2.87018e-06 0 0 2.87018e-06 0 2.87018e-06)
(5.5152e-05 0 0 5.5152e-05 0 5.5152e-05)
(2.69052e-06 0 0 2.69052e-06 0 2.69052e-06)
(3.64947e-05 0 0 3.64947e-05 0 3.64947e-05)
(4.36827e-06 0 0 4.36827e-06 0 4.36827e-06)
(3.13226e-05 0 0 3.13226e-05 0 3.13226e-05)
(7.18844e-06 0 0 7.18844e-06 0 7.18844e-06)
(2.71051e-05 0 0 2.71051e-05 0 2.71051e-05)
(7.61002e-06 0 0 7.61002e-06 0 7.61002e-06)
(1.65259e-05 0 0 1.65259e-05 0 1.65259e-05)
(4.81993e-06 0 0 4.81993e-06 0 4.81993e-06)
(7.73252e-06 0 0 7.73252e-06 0 7.73252e-06)
(2.51019e-06 0 0 2.51019e-06 0 2.51019e-06)
(4.51486e-06 0 0 4.51486e-06 0 4.51486e-06)
(1.57736e-06 0 0 1.57736e-06 0 1.57736e-06)
(4.30876e-06 0 0 4.30876e-06 0 4.30876e-06)
(1.34244e-06 0 0 1.34244e-06 0 1.34244e-06)
(6.52735e-06 0 0 6.52735e-06 0 6.52735e-06)
(1.40176e-06 0 0 1.40176e-06 0 1.40176e-06)
(1.14903e-05 0 0 1.14903e-05 0 1.14903e-05)
(1.52218e-06 0 0 1.52218e-06 0 1.52218e-06)
(1.55923e-05 0 0 1.55923e-05 0 1.55923e-05)
(1.84602e-06 0 0 1.84602e-06 0 1.84602e-06)
(1.74643e-05 0 0 1.74643e-05 0 1.74643e-05)
(3.02355e-06 0 0 3.02355e-06 0 3.02355e-06)
(2.34729e-05 0 0 2.34729e-05 0 2.34729e-05)
(6.41154e-06 0 0 6.41154e-06 0 6.41154e-06)
(4.51738e-05 0 0 4.51738e-05 0 4.51738e-05)
(1.42548e-05 0 0 1.42548e-05 0 1.42548e-05)
(9.77073e-05 0 0 9.77073e-05 0 9.77073e-05)
(2.56906e-05 0 0 2.56906e-05 0 2.56906e-05)
(9.73317e-05 0 0 9.73317e-05 0 9.73317e-05)
(2.65375e-05 0 0 2.65375e-05 0 2.65375e-05)
(1.99666e-05 0 0 1.99666e-05 0 1.99666e-05)
(1.31692e-05 0 0 1.31692e-05 0 1.31692e-05)
(1.37515e-06 0 0 1.37515e-06 0 1.37515e-06)
(2.84979e-06 0 0 2.84979e-06 0 2.84979e-06)
(9.95216e-08 0 0 9.95216e-08 0 9.95216e-08)
(2.77679e-07 0 0 2.77679e-07 0 2.77679e-07)
(2.05723e-08 0 0 2.05723e-08 0 2.05723e-08)
(2.09893e-08 0 0 2.09893e-08 0 2.09893e-08)
(1.55775e-08 0 0 1.55775e-08 0 1.55775e-08)
(3.38765e-09 0 0 3.38765e-09 0 3.38765e-09)
(3.66757e-08 0 0 3.66757e-08 0 3.66757e-08)
(3.18579e-09 0 0 3.18579e-09 0 3.18579e-09)
(4.19408e-07 0 0 4.19408e-07 0 4.19408e-07)
(2.43974e-08 0 0 2.43974e-08 0 2.43974e-08)
(1.39974e-05 0 0 1.39974e-05 0 1.39974e-05)
(6.19238e-07 0 0 6.19238e-07 0 6.19238e-07)
(0.000311292 0 0 0.000311292 0 0.000311292)
(9.00994e-06 0 0 9.00994e-06 0 9.00994e-06)
(0.000669442 0 0 0.000669442 0 0.000669442)
(1.79927e-05 0 0 1.79927e-05 0 1.79927e-05)
(0.000108936 0 0 0.000108936 0 0.000108936)
(4.49448e-06 0 0 4.49448e-06 0 4.49448e-06)
(9.21842e-06 0 0 9.21842e-06 0 9.21842e-06)
(4.48805e-07 0 0 4.48805e-07 0 4.48805e-07)
(1.26346e-06 0 0 1.26346e-06 0 1.26346e-06)
(6.9457e-08 0 0 6.9457e-08 0 6.9457e-08)
(3.2156e-07 0 0 3.2156e-07 0 3.2156e-07)
(2.86198e-08 0 0 2.86198e-08 0 2.86198e-08)
(1.1819e-07 0 0 1.1819e-07 0 1.1819e-07)
(2.26406e-08 0 0 2.26406e-08 0 2.26406e-08)
(5.8302e-08 0 0 5.8302e-08 0 5.8302e-08)
(2.28167e-08 0 0 2.28167e-08 0 2.28167e-08)
(5.04328e-08 0 0 5.04328e-08 0 5.04328e-08)
(3.20109e-08 0 0 3.20109e-08 0 3.20109e-08)
(9.57139e-08 0 0 9.57139e-08 0 9.57139e-08)
(8.22729e-08 0 0 8.22729e-08 0 8.22729e-08)
(5.39986e-07 0 0 5.39986e-07 0 5.39986e-07)
(5.25859e-07 0 0 5.25859e-07 0 5.25859e-07)
(7.4181e-06 0 0 7.4181e-06 0 7.4181e-06)
(7.71887e-06 0 0 7.71887e-06 0 7.71887e-06)
(5.18786e-05 0 0 5.18786e-05 0 5.18786e-05)
(7.63311e-05 0 0 7.63311e-05 0 7.63311e-05)
(2.16313e-05 0 0 2.16313e-05 0 2.16313e-05)
(0.000114693 0 0 0.000114693 0 0.000114693)
(1.39227e-06 0 0 1.39227e-06 0 1.39227e-06)
(1.83674e-05 0 0 1.83674e-05 0 1.83674e-05)
(1.32756e-07 0 0 1.32756e-07 0 1.32756e-07)
(1.07768e-06 0 0 1.07768e-06 0 1.07768e-06)
(4.93995e-08 0 0 4.93995e-08 0 4.93995e-08)
(1.18811e-07 0 0 1.18811e-07 0 1.18811e-07)
(5.11435e-08 0 0 5.11435e-08 0 5.11435e-08)
(6.33902e-08 0 0 6.33902e-08 0 6.33902e-08)
(1.2316e-07 0 0 1.2316e-07 0 1.2316e-07)
(1.30847e-07 0 0 1.30847e-07 0 1.30847e-07)
(3.28163e-07 0 0 3.28163e-07 0 3.28163e-07)
(3.54525e-07 0 0 3.54525e-07 0 3.54525e-07)
(4.36067e-07 0 0 4.36067e-07 0 4.36067e-07)
(5.40881e-07 0 0 5.40881e-07 0 5.40881e-07)
(3.65603e-07 0 0 3.65603e-07 0 3.65603e-07)
(4.77255e-07 0 0 4.77255e-07 0 4.77255e-07)
(3.45757e-07 0 0 3.45757e-07 0 3.45757e-07)
(3.99857e-07 0 0 3.99857e-07 0 3.99857e-07)
(4.57106e-07 0 0 4.57106e-07 0 4.57106e-07)
(4.65768e-07 0 0 4.65768e-07 0 4.65768e-07)
(7.58361e-07 0 0 7.58361e-07 0 7.58361e-07)
(7.18594e-07 0 0 7.18594e-07 0 7.18594e-07)
(1.18181e-06 0 0 1.18181e-06 0 1.18181e-06)
(1.01572e-06 0 0 1.01572e-06 0 1.01572e-06)
(1.56238e-06 0 0 1.56238e-06 0 1.56238e-06)
(1.03245e-06 0 0 1.03245e-06 0 1.03245e-06)
(2.04358e-06 0 0 2.04358e-06 0 2.04358e-06)
(8.99726e-07 0 0 8.99726e-07 0 8.99726e-07)
(2.82793e-06 0 0 2.82793e-06 0 2.82793e-06)
(1.05075e-06 0 0 1.05075e-06 0 1.05075e-06)
(3.21854e-06 0 0 3.21854e-06 0 3.21854e-06)
(2.03417e-06 0 0 2.03417e-06 0 2.03417e-06)
(1.96291e-06 0 0 1.96291e-06 0 1.96291e-06)
(3.7649e-06 0 0 3.7649e-06 0 3.7649e-06)
(7.05841e-07 0 0 7.05841e-07 0 7.05841e-07)
(2.59815e-06 0 0 2.59815e-06 0 2.59815e-06)
(2.97733e-07 0 0 2.97733e-07 0 2.97733e-07)
(9.12719e-07 0 0 9.12719e-07 0 9.12719e-07)
(2.29434e-07 0 0 2.29434e-07 0 2.29434e-07)
(4.30819e-07 0 0 4.30819e-07 0 4.30819e-07)
(3.27332e-07 0 0 3.27332e-07 0 3.27332e-07)
(4.72832e-07 0 0 4.72832e-07 0 4.72832e-07)
(6.70973e-07 0 0 6.70973e-07 0 6.70973e-07)
(9.5815e-07 0 0 9.5815e-07 0 9.5815e-07)
(1.05376e-06 0 0 1.05376e-06 0 1.05376e-06)
(1.72067e-06 0 0 1.72067e-06 0 1.72067e-06)
(1.02029e-06 0 0 1.02029e-06 0 1.02029e-06)
(1.73306e-06 0 0 1.73306e-06 0 1.73306e-06)
(9.71525e-07 0 0 9.71525e-07 0 9.71525e-07)
(1.24073e-06 0 0 1.24073e-06 0 1.24073e-06)
(1.28984e-06 0 0 1.28984e-06 0 1.28984e-06)
(1.11535e-06 0 0 1.11535e-06 0 1.11535e-06)
(2.29685e-06 0 0 2.29685e-06 0 2.29685e-06)
(1.61816e-06 0 0 1.61816e-06 0 1.61816e-06)
(3.49342e-06 0 0 3.49342e-06 0 3.49342e-06)
(2.67927e-06 0 0 2.67927e-06 0 2.67927e-06)
(3.4403e-06 0 0 3.4403e-06 0 3.4403e-06)
(2.88387e-06 0 0 2.88387e-06 0 2.88387e-06)
(3.58908e-06 0 0 3.58908e-06 0 3.58908e-06)
(1.87092e-06 0 0 1.87092e-06 0 1.87092e-06)
(6.3832e-06 0 0 6.3832e-06 0 6.3832e-06)
(1.23428e-06 0 0 1.23428e-06 0 1.23428e-06)
(2.31134e-05 0 0 2.31134e-05 0 2.31134e-05)
(1.42288e-06 0 0 1.42288e-06 0 1.42288e-06)
(9.16114e-05 0 0 9.16114e-05 0 9.16114e-05)
(2.73408e-06 0 0 2.73408e-06 0 2.73408e-06)
(7.22003e-05 0 0 7.22003e-05 0 7.22003e-05)
(4.09604e-06 0 0 4.09604e-06 0 4.09604e-06)
(9.88079e-06 0 0 9.88079e-06 0 9.88079e-06)
(2.64727e-06 0 0 2.64727e-06 0 2.64727e-06)
(1.52648e-06 0 0 1.52648e-06 0 1.52648e-06)
(1.13759e-06 0 0 1.13759e-06 0 1.13759e-06)
(7.27347e-07 0 0 7.27347e-07 0 7.27347e-07)
(8.00431e-07 0 0 8.00431e-07 0 8.00431e-07)
(8.66577e-07 0 0 8.66577e-07 0 8.66577e-07)
(1.06995e-06 0 0 1.06995e-06 0 1.06995e-06)
(2.11504e-06 0 0 2.11504e-06 0 2.11504e-06)
(2.82883e-06 0 0 2.82883e-06 0 2.82883e-06)
(4.63439e-06 0 0 4.63439e-06 0 4.63439e-06)
(7.5998e-06 0 0 7.5998e-06 0 7.5998e-06)
(6.62909e-06 0 0 6.62909e-06 0 6.62909e-06)
(1.13219e-05 0 0 1.13219e-05 0 1.13219e-05)
(1.16044e-05 0 0 1.16044e-05 0 1.16044e-05)
(1.41583e-05 0 0 1.41583e-05 0 1.41583e-05)
(4.13528e-05 0 0 4.13528e-05 0 4.13528e-05)
(3.32646e-05 0 0 3.32646e-05 0 3.32646e-05)
(0.00032863 0 0 0.00032863 0 0.00032863)
(0.00018767 0 0 0.00018767 0 0.00018767)
(0.00153961 0 0 0.00153961 0 0.00153961)
(0.00135486 0 0 0.00135486 0 0.00135486)
(0.00036166 0 0 0.00036166 0 0.00036166)
(0.00253387 0 0 0.00253387 0 0.00253387)
(6.82291e-06 0 0 6.82291e-06 0 6.82291e-06)
(0.000361984 0 0 0.000361984 0 0.000361984)
(7.95376e-08 0 0 7.95376e-08 0 7.95376e-08)
(6.69952e-06 0 0 6.69952e-06 0 6.69952e-06)
(2.41379e-09 0 0 2.41379e-09 0 2.41379e-09)
(7.84111e-08 0 0 7.84111e-08 0 7.84111e-08)
(3.53674e-10 0 0 3.53674e-10 0 3.53674e-10)
(2.36007e-09 0 0 2.36007e-09 0 2.36007e-09)
(1.96106e-10 0 0 1.96106e-10 0 1.96106e-10)
(3.36501e-10 0 0 3.36501e-10 0 3.36501e-10)
(2.86566e-10 0 0 2.86566e-10 0 2.86566e-10)
(2.04719e-10 0 0 2.04719e-10 0 2.04719e-10)
(1.04922e-09 0 0 1.04922e-09 0 1.04922e-09)
(5.1053e-10 0 0 5.1053e-10 0 5.1053e-10)
(6.07266e-09 0 0 6.07266e-09 0 6.07266e-09)
(3.41631e-09 0 0 3.41631e-09 0 3.41631e-09)
(2.60981e-08 0 0 2.60981e-08 0 2.60981e-08)
(1.96675e-08 0 0 1.96675e-08 0 1.96675e-08)
(5.4779e-08 0 0 5.4779e-08 0 5.4779e-08)
(4.43598e-08 0 0 4.43598e-08 0 4.43598e-08)
(8.10655e-08 0 0 8.10655e-08 0 8.10655e-08)
(4.08779e-08 0 0 4.08779e-08 0 4.08779e-08)
(1.48556e-07 0 0 1.48556e-07 0 1.48556e-07)
(3.85532e-08 0 0 3.85532e-08 0 3.85532e-08)
(4.34127e-07 0 0 4.34127e-07 0 4.34127e-07)
(1.00352e-07 0 0 1.00352e-07 0 1.00352e-07)
(1.61399e-06 0 0 1.61399e-06 0 1.61399e-06)
(5.63937e-07 0 0 5.63937e-07 0 5.63937e-07)
(3.45956e-06 0 0 3.45956e-06 0 3.45956e-06)
(2.05767e-06 0 0 2.05767e-06 0 2.05767e-06)
(2.83397e-06 0 0 2.83397e-06 0 2.83397e-06)
(2.1663e-06 0 0 2.1663e-06 0 2.1663e-06)
(1.7876e-06 0 0 1.7876e-06 0 1.7876e-06)
(8.8598e-07 0 0 8.8598e-07 0 8.8598e-07)
(1.73626e-06 0 0 1.73626e-06 0 1.73626e-06)
(4.54155e-07 0 0 4.54155e-07 0 4.54155e-07)
(3.05422e-06 0 0 3.05422e-06 0 3.05422e-06)
(6.81912e-07 0 0 6.81912e-07 0 6.81912e-07)
(7.66959e-06 0 0 7.66959e-06 0 7.66959e-06)
(2.1105e-06 0 0 2.1105e-06 0 2.1105e-06)
(1.08014e-05 0 0 1.08014e-05 0 1.08014e-05)
(4.64804e-06 0 0 4.64804e-06 0 4.64804e-06)
(4.29212e-06 0 0 4.29212e-06 0 4.29212e-06)
(3.65727e-06 0 0 3.65727e-06 0 3.65727e-06)
(9.55766e-07 0 0 9.55766e-07 0 9.55766e-07)
(1.31489e-06 0 0 1.31489e-06 0 1.31489e-06)
(3.31305e-07 0 0 3.31305e-07 0 3.31305e-07)
(4.50398e-07 0 0 4.50398e-07 0 4.50398e-07)
(2.59944e-07 0 0 2.59944e-07 0 2.59944e-07)
(2.58464e-07 0 0 2.58464e-07 0 2.58464e-07)
(4.53977e-07 0 0 4.53977e-07 0 4.53977e-07)
(3.39572e-07 0 0 3.39572e-07 0 3.39572e-07)
(1.59659e-06 0 0 1.59659e-06 0 1.59659e-06)
(8.34145e-07 0 0 8.34145e-07 0 8.34145e-07)
(6.17379e-06 0 0 6.17379e-06 0 6.17379e-06)
(2.26824e-06 0 0 2.26824e-06 0 2.26824e-06)
(1.0513e-05 0 0 1.0513e-05 0 1.0513e-05)
(5.39135e-06 0 0 5.39135e-06 0 5.39135e-06)
(4.46867e-06 0 0 4.46867e-06 0 4.46867e-06)
(7.8226e-06 0 0 7.8226e-06 0 7.8226e-06)
(7.19483e-07 0 0 7.19483e-07 0 7.19483e-07)
(3.75689e-06 0 0 3.75689e-06 0 3.75689e-06)
(1.1424e-07 0 0 1.1424e-07 0 1.1424e-07)
(6.59766e-07 0 0 6.59766e-07 0 6.59766e-07)
(3.98463e-08 0 0 3.98463e-08 0 3.98463e-08)
(1.07997e-07 0 0 1.07997e-07 0 1.07997e-07)
(3.6283e-08 0 0 3.6283e-08 0 3.6283e-08)
(4.08723e-08 0 0 4.08723e-08 0 4.08723e-08)
(8.42572e-08 0 0 8.42572e-08 0 8.42572e-08)
(5.3954e-08 0 0 5.3954e-08 0 5.3954e-08)
(4.66041e-07 0 0 4.66041e-07 0 4.66041e-07)
(2.14825e-07 0 0 2.14825e-07 0 2.14825e-07)
(2.72129e-06 0 0 2.72129e-06 0 2.72129e-06)
(1.41374e-06 0 0 1.41374e-06 0 1.41374e-06)
(5.667e-06 0 0 5.667e-06 0 5.667e-06)
(6.11311e-06 0 0 6.11311e-06 0 6.11311e-06)
(3.63413e-06 0 0 3.63413e-06 0 3.63413e-06)
(8.4406e-06 0 0 8.4406e-06 0 8.4406e-06)
(1.92394e-06 0 0 1.92394e-06 0 1.92394e-06)
(4.60275e-06 0 0 4.60275e-06 0 4.60275e-06)
(1.74011e-06 0 0 1.74011e-06 0 1.74011e-06)
(2.61066e-06 0 0 2.61066e-06 0 2.61066e-06)
(3.1852e-06 0 0 3.1852e-06 0 3.1852e-06)
(3.20105e-06 0 0 3.20105e-06 0 3.20105e-06)
(1.1076e-05 0 0 1.1076e-05 0 1.1076e-05)
(7.51046e-06 0 0 7.51046e-06 0 7.51046e-06)
(3.76346e-05 0 0 3.76346e-05 0 3.76346e-05)
(1.6978e-05 0 0 1.6978e-05 0 1.6978e-05)
(5.42081e-05 0 0 5.42081e-05 0 5.42081e-05)
(2.10359e-05 0 0 2.10359e-05 0 2.10359e-05)
(3.46261e-05 0 0 3.46261e-05 0 3.46261e-05)
(1.13359e-05 0 0 1.13359e-05 0 1.13359e-05)
(1.97773e-05 0 0 1.97773e-05 0 1.97773e-05)
(3.63012e-06 0 0 3.63012e-06 0 3.63012e-06)
(1.44101e-05 0 0 1.44101e-05 0 1.44101e-05)
(1.41277e-06 0 0 1.41277e-06 0 1.41277e-06)
(1.13568e-05 0 0 1.13568e-05 0 1.13568e-05)
(1.11645e-06 0 0 1.11645e-06 0 1.11645e-06)
(5.06808e-06 0 0 5.06808e-06 0 5.06808e-06)
(1.48392e-06 0 0 1.48392e-06 0 1.48392e-06)
(7.23617e-07 0 0 7.23617e-07 0 7.23617e-07)
(1.48184e-06 0 0 1.48184e-06 0 1.48184e-06)
(5.08106e-08 0 0 5.08106e-08 0 5.08106e-08)
(4.57121e-07 0 0 4.57121e-07 0 4.57121e-07)
(4.94765e-09 0 0 4.94765e-09 0 4.94765e-09)
(4.52398e-08 0 0 4.52398e-08 0 4.52398e-08)
(1.46221e-09 0 0 1.46221e-09 0 1.46221e-09)
(4.98227e-09 0 0 4.98227e-09 0 4.98227e-09)
(1.29124e-09 0 0 1.29124e-09 0 1.29124e-09)
(1.82111e-09 0 0 1.82111e-09 0 1.82111e-09)
(3.13769e-09 0 0 3.13769e-09 0 3.13769e-09)
(3.01458e-09 0 0 3.01458e-09 0 3.01458e-09)
(2.02786e-08 0 0 2.02786e-08 0 2.02786e-08)
(1.40194e-08 0 0 1.40194e-08 0 1.40194e-08)
(1.77596e-07 0 0 1.77596e-07 0 1.77596e-07)
(8.74428e-08 0 0 8.74428e-08 0 8.74428e-08)
(9.0679e-07 0 0 9.0679e-07 0 9.0679e-07)
(4.49891e-07 0 0 4.49891e-07 0 4.49891e-07)
(1.85714e-06 0 0 1.85714e-06 0 1.85714e-06)
(1.27509e-06 0 0 1.27509e-06 0 1.27509e-06)
(2.32486e-06 0 0 2.32486e-06 0 2.32486e-06)
(1.7376e-06 0 0 1.7376e-06 0 1.7376e-06)
(1.62129e-06 0 0 1.62129e-06 0 1.62129e-06)
(1.3048e-06 0 0 1.3048e-06 0 1.3048e-06)
(1.90214e-07 0 0 1.90214e-07 0 1.90214e-07)
(2.40832e-06 0 0 2.40832e-06 0 2.40832e-06)
(1.29633e-07 0 0 1.29633e-07 0 1.29633e-07)
(5.42374e-06 0 0 5.42374e-06 0 5.42374e-06)
(1.96639e-07 0 0 1.96639e-07 0 1.96639e-07)
(6.28645e-06 0 0 6.28645e-06 0 6.28645e-06)
(5.86054e-07 0 0 5.86054e-07 0 5.86054e-07)
(1.93073e-06 0 0 1.93073e-06 0 1.93073e-06)
(1.48089e-06 0 0 1.48089e-06 0 1.48089e-06)
(2.47889e-07 0 0 2.47889e-07 0 2.47889e-07)
(1.15536e-06 0 0 1.15536e-06 0 1.15536e-06)
(2.9225e-08 0 0 2.9225e-08 0 2.9225e-08)
(2.26032e-07 0 0 2.26032e-07 0 2.26032e-07)
(4.99996e-09 0 0 4.99996e-09 0 4.99996e-09)
(3.02362e-08 0 0 3.02362e-08 0 3.02362e-08)
(1.43715e-09 0 0 1.43715e-09 0 1.43715e-09)
(5.65356e-09 0 0 5.65356e-09 0 5.65356e-09)
(7.05897e-10 0 0 7.05897e-10 0 7.05897e-10)
(1.84319e-09 0 0 1.84319e-09 0 1.84319e-09)
(5.75307e-10 0 0 5.75307e-10 0 5.75307e-10)
(1.0968e-09 0 0 1.0968e-09 0 1.0968e-09)
(7.30277e-10 0 0 7.30277e-10 0 7.30277e-10)
(1.15275e-09 0 0 1.15275e-09 0 1.15275e-09)
(1.31572e-09 0 0 1.31572e-09 0 1.31572e-09)
(1.86242e-09 0 0 1.86242e-09 0 1.86242e-09)
(3.17206e-09 0 0 3.17206e-09 0 3.17206e-09)
(3.96255e-09 0 0 3.96255e-09 0 3.96255e-09)
(1.11232e-08 0 0 1.11232e-08 0 1.11232e-08)
(1.13898e-08 0 0 1.13898e-08 0 1.13898e-08)
(6.86655e-08 0 0 6.86655e-08 0 6.86655e-08)
(5.4334e-08 0 0 5.4334e-08 0 5.4334e-08)
(7.51528e-07 0 0 7.51528e-07 0 7.51528e-07)
(4.8124e-07 0 0 4.8124e-07 0 4.8124e-07)
(7.3559e-06 0 0 7.3559e-06 0 7.3559e-06)
(5.2685e-06 0 0 5.2685e-06 0 5.2685e-06)
(1.53586e-05 0 0 1.53586e-05 0 1.53586e-05)
(2.47024e-05 0 0 2.47024e-05 0 2.47024e-05)
(4.53104e-06 0 0 4.53104e-06 0 4.53104e-06)
(2.12518e-05 0 0 2.12518e-05 0 2.12518e-05)
(9.98326e-07 0 0 9.98326e-07 0 9.98326e-07)
(4.84553e-06 0 0 4.84553e-06 0 4.84553e-06)
(5.07421e-07 0 0 5.07421e-07 0 5.07421e-07)
(1.12863e-06 0 0 1.12863e-06 0 1.12863e-06)
(5.89798e-07 0 0 5.89798e-07 0 5.89798e-07)
(8.15155e-07 0 0 8.15155e-07 0 8.15155e-07)
(1.29601e-06 0 0 1.29601e-06 0 1.29601e-06)
(1.73517e-06 0 0 1.73517e-06 0 1.73517e-06)
(2.38872e-06 0 0 2.38872e-06 0 2.38872e-06)
(4.12434e-06 0 0 4.12434e-06 0 4.12434e-06)
(2.09096e-06 0 0 2.09096e-06 0 2.09096e-06)
(4.87998e-06 0 0 4.87998e-06 0 4.87998e-06)
(1.42297e-06 0 0 1.42297e-06 0 1.42297e-06)
(3.13116e-06 0 0 3.13116e-06 0 3.13116e-06)
(1.14673e-06 0 0 1.14673e-06 0 1.14673e-06)
(1.97478e-06 0 0 1.97478e-06 0 1.97478e-06)
(8.81255e-07 0 0 8.81255e-07 0 8.81255e-07)
(1.35684e-06 0 0 1.35684e-06 0 1.35684e-06)
(2.87429e-07 0 0 2.87429e-07 0 2.87429e-07)
(5.03048e-07 0 0 5.03048e-07 0 5.03048e-07)
(2.91466e-08 0 0 2.91466e-08 0 2.91466e-08)
(6.56171e-08 0 0 6.56171e-08 0 6.56171e-08)
(2.39502e-09 0 0 2.39502e-09 0 2.39502e-09)
(5.38697e-09 0 0 5.38697e-09 0 5.38697e-09)
(4.53765e-10 0 0 4.53765e-10 0 4.53765e-10)
(7.4308e-10 0 0 7.4308e-10 0 7.4308e-10)
(2.42487e-10 0 0 2.42487e-10 0 2.42487e-10)
(2.87795e-10 0 0 2.87795e-10 0 2.87795e-10)
(2.89895e-10 0 0 2.89895e-10 0 2.89895e-10)
(2.99543e-10 0 0 2.99543e-10 0 2.99543e-10)
(6.64042e-10 0 0 6.64042e-10 0 6.64042e-10)
(6.23666e-10 0 0 6.23666e-10 0 6.23666e-10)
(2.22613e-09 0 0 2.22613e-09 0 2.22613e-09)
(1.76922e-09 0 0 1.76922e-09 0 1.76922e-09)
(9.76572e-09 0 0 9.76572e-09 0 9.76572e-09)
(6.27256e-09 0 0 6.27256e-09 0 6.27256e-09)
(5.36368e-08 0 0 5.36368e-08 0 5.36368e-08)
(2.87157e-08 0 0 2.87157e-08 0 2.87157e-08)
(2.61254e-07 0 0 2.61254e-07 0 2.61254e-07)
(1.15306e-07 0 0 1.15306e-07 0 1.15306e-07)
(5.7601e-07 0 0 5.7601e-07 0 5.7601e-07)
(1.97336e-07 0 0 1.97336e-07 0 1.97336e-07)
(4.55049e-07 0 0 4.55049e-07 0 4.55049e-07)
(1.1218e-07 0 0 1.1218e-07 0 1.1218e-07)
(2.44004e-07 0 0 2.44004e-07 0 2.44004e-07)
(4.11542e-08 0 0 4.11542e-08 0 4.11542e-08)
(1.65478e-07 0 0 1.65478e-07 0 1.65478e-07)
(2.33106e-08 0 0 2.33106e-08 0 2.33106e-08)
(1.70655e-07 0 0 1.70655e-07 0 1.70655e-07)
(2.55143e-08 0 0 2.55143e-08 0 2.55143e-08)
(2.54482e-07 0 0 2.54482e-07 0 2.54482e-07)
(3.49648e-08 0 0 3.49648e-08 0 3.49648e-08)
(4.7397e-07 0 0 4.7397e-07 0 4.7397e-07)
(3.91131e-08 0 0 3.91131e-08 0 3.91131e-08)
(1.00956e-06 0 0 1.00956e-06 0 1.00956e-06)
(3.92901e-08 0 0 3.92901e-08 0 3.92901e-08)
(2.35505e-06 0 0 2.35505e-06 0 2.35505e-06)
(5.43959e-08 0 0 5.43959e-08 0 5.43959e-08)
(4.89606e-06 0 0 4.89606e-06 0 4.89606e-06)
(1.07809e-07 0 0 1.07809e-07 0 1.07809e-07)
(5.95355e-06 0 0 5.95355e-06 0 5.95355e-06)
(1.71696e-07 0 0 1.71696e-07 0 1.71696e-07)
(3.67378e-06 0 0 3.67378e-06 0 3.67378e-06)
(1.23854e-07 0 0 1.23854e-07 0 1.23854e-07)
(1.89994e-06 0 0 1.89994e-06 0 1.89994e-06)
(4.70337e-08 0 0 4.70337e-08 0 4.70337e-08)
(1.40792e-06 0 0 1.40792e-06 0 1.40792e-06)
(2.17336e-08 0 0 2.17336e-08 0 2.17336e-08)
(1.71683e-06 0 0 1.71683e-06 0 1.71683e-06)
(2.62528e-08 0 0 2.62528e-08 0 2.62528e-08)
(2.9357e-06 0 0 2.9357e-06 0 2.9357e-06)
(8.76294e-08 0 0 8.76294e-08 0 8.76294e-08)
(4.19125e-06 0 0 4.19125e-06 0 4.19125e-06)
(4.68837e-07 0 0 4.68837e-07 0 4.68837e-07)
(3.31143e-06 0 0 3.31143e-06 0 3.31143e-06)
(2.07144e-06 0 0 2.07144e-06 0 2.07144e-06)
(1.83373e-06 0 0 1.83373e-06 0 1.83373e-06)
(3.64643e-06 0 0 3.64643e-06 0 3.64643e-06)
(1.10739e-06 0 0 1.10739e-06 0 1.10739e-06)
(2.55358e-06 0 0 2.55358e-06 0 2.55358e-06)
(8.64009e-07 0 0 8.64009e-07 0 8.64009e-07)
(1.74022e-06 0 0 1.74022e-06 0 1.74022e-06)
(8.15517e-07 0 0 8.15517e-07 0 8.15517e-07)
(1.42711e-06 0 0 1.42711e-06 0 1.42711e-06)
(8.21599e-07 0 0 8.21599e-07 0 8.21599e-07)
(8.40047e-07 0 0 8.40047e-07 0 8.40047e-07)
(8.99581e-07 0 0 8.99581e-07 0 8.99581e-07)
(2.82698e-07 0 0 2.82698e-07 0 2.82698e-07)
(1.23715e-06 0 0 1.23715e-06 0 1.23715e-06)
(2.12036e-07 0 0 2.12036e-07 0 2.12036e-07)
(2.32858e-06 0 0 2.32858e-06 0 2.32858e-06)
(5.31881e-07 0 0 5.31881e-07 0 5.31881e-07)
(5.44905e-06 0 0 5.44905e-06 0 5.44905e-06)
(1.92766e-06 0 0 1.92766e-06 0 1.92766e-06)
(1.15022e-05 0 0 1.15022e-05 0 1.15022e-05)
(4.25098e-06 0 0 4.25098e-06 0 4.25098e-06)
(1.50664e-05 0 0 1.50664e-05 0 1.50664e-05)
(4.14922e-06 0 0 4.14922e-06 0 4.14922e-06)
(9.67652e-06 0 0 9.67652e-06 0 9.67652e-06)
(2.5187e-06 0 0 2.5187e-06 0 2.5187e-06)
(2.65426e-06 0 0 2.65426e-06 0 2.65426e-06)
(1.51697e-06 0 0 1.51697e-06 0 1.51697e-06)
(3.10079e-07 0 0 3.10079e-07 0 3.10079e-07)
(7.30054e-07 0 0 7.30054e-07 0 7.30054e-07)
(2.42738e-08 0 0 2.42738e-08 0 2.42738e-08)
(1.52783e-07 0 0 1.52783e-07 0 1.52783e-07)
(3.39876e-09 0 0 3.39876e-09 0 3.39876e-09)
(1.60634e-08 0 0 1.60634e-08 0 1.60634e-08)
(1.83523e-09 0 0 1.83523e-09 0 1.83523e-09)
(2.62838e-09 0 0 2.62838e-09 0 2.62838e-09)
(3.05235e-09 0 0 3.05235e-09 0 3.05235e-09)
(2.23996e-09 0 0 2.23996e-09 0 2.23996e-09)
(2.48641e-08 0 0 2.48641e-08 0 2.48641e-08)
(1.34817e-08 0 0 1.34817e-08 0 1.34817e-08)
(6.04436e-07 0 0 6.04436e-07 0 6.04436e-07)
(1.86405e-07 0 0 1.86405e-07 0 1.86405e-07)
(6.12166e-06 0 0 6.12166e-06 0 6.12166e-06)
(1.00301e-06 0 0 1.00301e-06 0 1.00301e-06)
(3.6156e-06 0 0 3.6156e-06 0 3.6156e-06)
(9.77487e-07 0 0 9.77487e-07 0 9.77487e-07)
(4.09592e-07 0 0 4.09592e-07 0 4.09592e-07)
(3.14206e-07 0 0 3.14206e-07 0 3.14206e-07)
(6.05434e-08 0 0 6.05434e-08 0 6.05434e-08)
(9.5506e-08 0 0 9.5506e-08 0 9.5506e-08)
(2.05987e-08 0 0 2.05987e-08 0 2.05987e-08)
(3.88466e-08 0 0 3.88466e-08 0 3.88466e-08)
(1.3158e-08 0 0 1.3158e-08 0 1.3158e-08)
(2.20171e-08 0 0 2.20171e-08 0 2.20171e-08)
(1.25731e-08 0 0 1.25731e-08 0 1.25731e-08)
(1.7839e-08 0 0 1.7839e-08 0 1.7839e-08)
(1.72667e-08 0 0 1.72667e-08 0 1.72667e-08)
(1.66651e-08 0 0 1.66651e-08 0 1.66651e-08)
(4.24346e-08 0 0 4.24346e-08 0 4.24346e-08)
(2.74462e-08 0 0 2.74462e-08 0 2.74462e-08)
(2.77122e-07 0 0 2.77122e-07 0 2.77122e-07)
(1.73299e-07 0 0 1.73299e-07 0 1.73299e-07)
(5.57716e-06 0 0 5.57716e-06 0 5.57716e-06)
(3.88286e-06 0 0 3.88286e-06 0 3.88286e-06)
(0.000127419 0 0 0.000127419 0 0.000127419)
(9.58225e-05 0 0 9.58225e-05 0 9.58225e-05)
(0.000393088 0 0 0.000393088 0 0.000393088)
(0.000507408 0 0 0.000507408 0 0.000507408)
(5.90527e-05 0 0 5.90527e-05 0 5.90527e-05)
(0.000243682 0 0 0.000243682 0 0.000243682)
(3.78631e-06 0 0 3.78631e-06 0 3.78631e-06)
(2.41041e-05 0 0 2.41041e-05 0 2.41041e-05)
(5.51878e-07 0 0 5.51878e-07 0 5.51878e-07)
(2.27433e-06 0 0 2.27433e-06 0 2.27433e-06)
(2.53234e-07 0 0 2.53234e-07 0 2.53234e-07)
(5.14649e-07 0 0 5.14649e-07 0 5.14649e-07)
(2.58731e-07 0 0 2.58731e-07 0 2.58731e-07)
(3.78629e-07 0 0 3.78629e-07 0 3.78629e-07)
(4.26678e-07 0 0 4.26678e-07 0 4.26678e-07)
(6.1556e-07 0 0 6.1556e-07 0 6.1556e-07)
(6.1643e-07 0 0 6.1643e-07 0 6.1643e-07)
(9.97654e-07 0 0 9.97654e-07 0 9.97654e-07)
(6.05722e-07 0 0 6.05722e-07 0 6.05722e-07)
(1.03018e-06 0 0 1.03018e-06 0 1.03018e-06)
(5.37346e-07 0 0 5.37346e-07 0 5.37346e-07)
(8.26876e-07 0 0 8.26876e-07 0 8.26876e-07)
(5.6958e-07 0 0 5.6958e-07 0 5.6958e-07)
(7.91674e-07 0 0 7.91674e-07 0 7.91674e-07)
(7.40235e-07 0 0 7.40235e-07 0 7.40235e-07)
(1.03739e-06 0 0 1.03739e-06 0 1.03739e-06)
(9.45633e-07 0 0 9.45633e-07 0 9.45633e-07)
(1.50317e-06 0 0 1.50317e-06 0 1.50317e-06)
(9.03402e-07 0 0 9.03402e-07 0 9.03402e-07)
(1.70922e-06 0 0 1.70922e-06 0 1.70922e-06)
(6.9446e-07 0 0 6.9446e-07 0 6.9446e-07)
(1.31681e-06 0 0 1.31681e-06 0 1.31681e-06)
(6.35399e-07 0 0 6.35399e-07 0 6.35399e-07)
(8.70042e-07 0 0 8.70042e-07 0 8.70042e-07)
(9.17696e-07 0 0 9.17696e-07 0 9.17696e-07)
(7.78973e-07 0 0 7.78973e-07 0 7.78973e-07)
(2.23958e-06 0 0 2.23958e-06 0 2.23958e-06)
(1.30057e-06 0 0 1.30057e-06 0 1.30057e-06)
(7.08956e-06 0 0 7.08956e-06 0 7.08956e-06)
(3.70319e-06 0 0 3.70319e-06 0 3.70319e-06)
(1.56823e-05 0 0 1.56823e-05 0 1.56823e-05)
(1.04962e-05 0 0 1.04962e-05 0 1.04962e-05)
(1.72178e-05 0 0 1.72178e-05 0 1.72178e-05)
(1.62222e-05 0 0 1.62222e-05 0 1.62222e-05)
(1.28976e-05 0 0 1.28976e-05 0 1.28976e-05)
(1.1868e-05 0 0 1.1868e-05 0 1.1868e-05)
(9.65385e-06 0 0 9.65385e-06 0 9.65385e-06)
(5.48329e-06 0 0 5.48329e-06 0 5.48329e-06)
(7.43645e-06 0 0 7.43645e-06 0 7.43645e-06)
(2.29674e-06 0 0 2.29674e-06 0 2.29674e-06)
(4.78003e-06 0 0 4.78003e-06 0 4.78003e-06)
(1.11213e-06 0 0 1.11213e-06 0 1.11213e-06)
(2.48214e-06 0 0 2.48214e-06 0 2.48214e-06)
(6.14692e-07 0 0 6.14692e-07 0 6.14692e-07)
(1.48534e-06 0 0 1.48534e-06 0 1.48534e-06)
(3.60793e-07 0 0 3.60793e-07 0 3.60793e-07)
(1.35268e-06 0 0 1.35268e-06 0 1.35268e-06)
(2.55013e-07 0 0 2.55013e-07 0 2.55013e-07)
(1.79907e-06 0 0 1.79907e-06 0 1.79907e-06)
(2.55628e-07 0 0 2.55628e-07 0 2.55628e-07)
(2.30553e-06 0 0 2.30553e-06 0 2.30553e-06)
(3.184e-07 0 0 3.184e-07 0 3.184e-07)
(1.69325e-06 0 0 1.69325e-06 0 1.69325e-06)
(3.31884e-07 0 0 3.31884e-07 0 3.31884e-07)
(9.38032e-07 0 0 9.38032e-07 0 9.38032e-07)
(2.2271e-07 0 0 2.2271e-07 0 2.2271e-07)
(7.37284e-07 0 0 7.37284e-07 0 7.37284e-07)
(1.17086e-07 0 0 1.17086e-07 0 1.17086e-07)
(9.75334e-07 0 0 9.75334e-07 0 9.75334e-07)
(7.49803e-08 0 0 7.49803e-08 0 7.49803e-08)
(1.66952e-06 0 0 1.66952e-06 0 1.66952e-06)
(6.93049e-08 0 0 6.93049e-08 0 6.93049e-08)
(1.64464e-06 0 0 1.64464e-06 0 1.64464e-06)
(7.49313e-08 0 0 7.49313e-08 0 7.49313e-08)
(8.65358e-07 0 0 8.65358e-07 0 8.65358e-07)
(7.676e-08 0 0 7.676e-08 0 7.676e-08)
(6.78761e-07 0 0 6.78761e-07 0 6.78761e-07)
(9.27723e-08 0 0 9.27723e-08 0 9.27723e-08)
(1.23596e-06 0 0 1.23596e-06 0 1.23596e-06)
(2.28399e-07 0 0 2.28399e-07 0 2.28399e-07)
(7.45385e-06 0 0 7.45385e-06 0 7.45385e-06)
(1.50751e-06 0 0 1.50751e-06 0 1.50751e-06)
(8.14344e-05 0 0 8.14344e-05 0 8.14344e-05)
(1.38764e-05 0 0 1.38764e-05 0 1.38764e-05)
(0.000242198 0 0 0.000242198 0 0.000242198)
(5.28253e-05 0 0 5.28253e-05 0 5.28253e-05)
(0.000123395 0 0 0.000123395 0 0.000123395)
(4.62803e-05 0 0 4.62803e-05 0 4.62803e-05)
(6.88815e-05 0 0 6.88815e-05 0 6.88815e-05)
(1.65245e-05 0 0 1.65245e-05 0 1.65245e-05)
(8.92193e-05 0 0 8.92193e-05 0 8.92193e-05)
(8.05523e-06 0 0 8.05523e-06 0 8.05523e-06)
(0.000330728 0 0 0.000330728 0 0.000330728)
(1.16502e-05 0 0 1.16502e-05 0 1.16502e-05)