/*--------------------------------*- C++ -*----------------------------------*\
  =========                 |
  \\      /  F ield         | OpenFOAM: The Open Source CFD Toolbox
   \\    /   O peration     | Website:  https://openfoam.org
    \\  /    A nd           | Version:  8
     \\/     M anipulation  |
\*---------------------------------------------------------------------------*/
FoamFile
{
    version     2.0;
    format      ascii;
    class       volVectorField;
    location    "1";
    object      U;
}
// * * * * * * * * * * * * * * * * * * * * * * * * * * * * * * * * * * * * * //

dimensions      [0 1 -1 0 0 0 0];

internalField   nonuniform List<vector> 
20000
(
(9.44161e-05 0 -2.84161e-05)
(0.000134923 0 -1.20907e-05)
(0.000144609 0 2.40409e-06)
(0.00011505 0 2.71548e-05)
(5.48507e-05 0 3.30446e-05)
(1.19867e-05 0 9.81938e-06)
(1.21758e-06 0 9.49736e-07)
(1.86387e-07 0 8.14591e-08)
(1.07048e-07 0 -2.12058e-09)
(1.38006e-07 0 -2.88371e-08)
(2.30297e-07 0 -6.34543e-08)
(4.36066e-07 0 -1.42315e-07)
(9.33953e-07 0 -3.55572e-07)
(2.13109e-06 0 -8.4156e-07)
(4.56672e-06 0 -1.59407e-06)
(8.57676e-06 0 -2.41597e-06)
(1.26457e-05 0 -1.65301e-06)
(1.22056e-05 0 2.09311e-06)
(7.8324e-06 0 2.27999e-06)
(5.02509e-06 0 5.2721e-07)
(4.78123e-06 0 -2.83431e-07)
(5.10184e-06 0 -3.72127e-08)
(4.88143e-06 0 2.57604e-07)
(4.12658e-06 0 4.97225e-07)
(3.34978e-06 0 2.79551e-07)
(3.22274e-06 0 -1.5253e-07)
(3.60406e-06 0 -2.28833e-07)
(3.93237e-06 0 -9.95117e-08)
(4.10681e-06 0 -7.49649e-08)
(4.3783e-06 0 -1.96559e-07)
(4.76875e-06 0 -1.93904e-07)
(5.01221e-06 0 -4.95503e-08)
(5.05257e-06 0 9.18647e-09)
(5.02473e-06 0 1.86537e-08)
(4.98801e-06 0 1.80609e-08)
(4.96605e-06 0 3.90401e-09)
(5.00547e-06 0 -4.33212e-08)
(5.20705e-06 0 -1.58258e-07)
(5.95621e-06 0 -5.90905e-07)
(8.61599e-06 0 -2.06887e-06)
(1.45039e-05 0 -3.81906e-06)
(2.1179e-05 0 -2.85601e-06)
(2.52632e-05 0 -1.22826e-06)
(2.71486e-05 0 -6.57141e-07)
(2.84468e-05 0 -6.41159e-07)
(2.99131e-05 0 -8.25136e-07)
(3.16683e-05 0 -9.30095e-07)
(3.34629e-05 0 -8.64637e-07)
(3.51446e-05 0 -8.17146e-07)
(3.70143e-05 0 -1.05261e-06)
(3.97415e-05 0 -1.67461e-06)
(4.29499e-05 0 -1.53387e-06)
(4.51308e-05 0 -6.47044e-07)
(4.59106e-05 0 -1.32703e-07)
(4.5857e-05 0 1.86212e-07)
(4.50207e-05 0 6.50051e-07)
(4.32602e-05 0 1.11038e-06)
(3.99527e-05 0 2.19719e-06)
(3.35868e-05 0 4.16874e-06)
(2.62285e-05 0 3.1895e-06)
(2.141e-05 0 1.62904e-06)
(1.93648e-05 0 4.16183e-07)
(1.92206e-05 0 -2.72041e-07)
(1.97541e-05 0 -2.61481e-07)
(1.99495e-05 0 6.59554e-08)
(1.93784e-05 0 5.05046e-07)
(1.79215e-05 0 9.51767e-07)
(1.59634e-05 0 1.00613e-06)
(1.40046e-05 0 9.52234e-07)
(1.1588e-05 0 1.46378e-06)
(8.25854e-06 0 1.86523e-06)
(5.1007e-06 0 1.2925e-06)
(3.48616e-06 0 3.22014e-07)
(3.19092e-06 0 -2.67713e-08)
(3.26043e-06 0 -4.27429e-08)
(3.34602e-06 0 -4.28447e-08)
(3.46742e-06 0 -7.85564e-08)
(3.82319e-06 0 -2.77217e-07)
(5.0713e-06 0 -9.70918e-07)
(6.85904e-06 0 -8.16891e-07)
(7.6425e-06 0 3.33796e-08)
(7.38085e-06 0 2.28254e-07)
(6.89237e-06 0 2.60227e-07)
(6.33735e-06 0 2.94795e-07)
(5.66716e-06 0 3.75393e-07)
(4.83234e-06 0 4.59429e-07)
(3.83872e-06 0 5.34189e-07)
(2.73456e-06 0 5.69972e-07)
(1.72045e-06 0 4.44131e-07)
(1.05407e-06 0 2.22253e-07)
(9.10579e-07 0 -7.87656e-08)
(8.81812e-07 0 1.07591e-07)
(5.03421e-07 0 2.70875e-07)
(1.59823e-07 0 7.27471e-08)
(7.47347e-08 0 1.23464e-08)
(6.62493e-08 0 -3.86009e-09)
(1.14796e-07 0 -4.46865e-08)
(3.53722e-07 0 -1.94245e-07)
(8.91917e-07 0 -3.43969e-07)
(1.50567e-06 0 -2.69817e-07)
(1.93209e-06 0 -1.56646e-07)
(2.21545e-06 0 -1.26746e-07)
(2.53542e-06 0 -1.93243e-07)
(3.02764e-06 0 -2.98992e-07)
(3.59741e-06 0 -2.70791e-07)
(3.93031e-06 0 -6.21057e-08)
(3.75006e-06 0 2.42367e-07)
(2.75573e-06 0 7.51966e-07)
(9.54297e-07 0 1.04947e-06)
(-4.02063e-07 0 3.0689e-07)
(-7.94542e-07 0 8.55891e-08)
(-1.10014e-06 0 2.20013e-07)
(-1.94529e-06 0 6.25139e-07)
(-4.44665e-06 0 1.87622e-06)
(-1.01776e-05 0 3.85478e-06)
(-1.84165e-05 0 4.38405e-06)
(-2.65162e-05 0 3.71568e-06)
(-3.34857e-05 0 3.25379e-06)
(-3.99861e-05 0 3.2466e-06)
(-4.69986e-05 0 3.76589e-06)
(-5.63916e-05 0 5.62712e-06)
(-6.8963e-05 0 6.94434e-06)
(-8.18164e-05 0 5.90907e-06)
(-9.22726e-05 0 4.54708e-06)
(-9.98183e-05 0 2.99876e-06)
(-0.000102532 0 -2.84451e-07)
(-9.68935e-05 0 -5.35443e-06)
(-8.10931e-05 0 -1.0446e-05)
(-5.79515e-05 0 -1.26955e-05)
(-3.43058e-05 0 -1.09502e-05)
(-1.70106e-05 0 -6.34502e-06)
(-8.3088e-06 0 -2.35681e-06)
(-7.22263e-06 0 1.27065e-06)
(-1.27771e-05 0 4.28384e-06)
(-2.48617e-05 0 7.80078e-06)
(-4.28038e-05 0 1.01414e-05)
(-5.18496e-05 0 -1.09513e-06)
(-3.13762e-05 0 -1.93773e-05)
(-6.55452e-06 0 -5.44392e-06)
(-5.74678e-07 0 -5.35821e-07)
(-2.12888e-08 0 -1.75661e-08)
(-3.49145e-09 0 -2.31184e-10)
(-4.08842e-09 0 8.28166e-10)
(-6.56158e-09 0 1.645e-09)
(-1.5069e-08 0 6.86247e-09)
(-8.34528e-08 0 6.15212e-08)
(-6.17887e-07 0 4.72913e-07)
(-2.57057e-06 0 1.47977e-06)
(-5.75926e-06 0 1.70892e-06)
(-8.8005e-06 0 1.33233e-06)
(-1.17064e-05 0 1.57358e-06)
(-1.57373e-05 0 2.45736e-06)
(-2.06655e-05 0 2.4708e-06)
(-2.40994e-05 0 9.63124e-07)
(-2.53194e-05 0 2.56838e-07)
(-2.55675e-05 0 -8.70377e-09)
(-2.53395e-05 0 -2.19341e-07)
(-2.4512e-05 0 -6.08135e-07)
(-2.25661e-05 0 -1.33774e-06)
(-1.89781e-05 0 -2.25026e-06)
(-1.41109e-05 0 -2.61699e-06)
(-9.39686e-06 0 -2.09701e-06)
(-6.24603e-06 0 -1.05382e-06)
(-4.94512e-06 0 -2.47088e-07)
(-5.46e-06 0 7.61962e-07)
(-8.19125e-06 0 1.96929e-06)
(-1.2351e-05 0 2.19046e-06)
(-1.3411e-05 0 -1.13049e-06)
(-9.40366e-06 0 -2.87683e-06)
(-5.95573e-06 0 -5.71102e-07)
(-6.15916e-06 0 7.74538e-07)
(-8.64171e-06 0 1.70801e-06)
(-1.45961e-05 0 4.24638e-06)
(-3.35854e-05 0 1.47429e-05)
(-7.78922e-05 0 2.95638e-05)
(-0.00010928 0 1.82403e-06)
(-9.15245e-05 0 -1.95796e-05)
(-6.55874e-05 0 -6.3575e-06)
(-6.33714e-05 0 4.14148e-06)
(-7.91546e-05 0 1.16417e-05)
(-0.000107257 0 1.6461e-05)
(-0.00012421 0 4.9138e-07)
(-0.000110792 0 -1.39093e-05)
(-8.9453e-05 0 -7.42948e-06)
(-7.9938e-05 0 -2.08556e-06)
(-7.65114e-05 0 -1.34101e-06)
(-7.24586e-05 0 -2.71179e-06)
(-6.17153e-05 0 -8.0315e-06)
(-3.79882e-05 0 -1.56956e-05)
(-1.33275e-05 0 -8.9652e-06)
(-2.88767e-06 0 -1.47461e-06)
(-1.37352e-06 0 -3.95298e-08)
(-1.64419e-06 0 3.10196e-07)
(-3.03295e-06 0 1.07857e-06)
(-7.7049e-06 0 3.59337e-06)
(-1.73353e-05 0 6.03708e-06)
(-3.04748e-05 0 7.10234e-06)
(-5.20745e-05 0 1.44974e-05)
(-0.000105795 0 3.92232e-05)
(-0.000241525 0 9.65069e-05)
(6.02196e-05 0 -5.10518e-05)
(4.54761e-05 0 -1.52182e-05)
(3.6274e-05 0 5.04706e-06)
(4.96673e-05 0 4.06774e-05)
(5.75985e-05 0 7.17903e-05)
(3.08606e-05 0 4.06755e-05)
(5.4939e-06 0 6.22942e-06)
(7.03997e-07 0 6.22869e-07)
(1.9433e-07 0 4.5476e-08)
(1.51532e-07 0 -6.45939e-08)
(1.90764e-07 0 -1.59221e-07)
(3.03147e-07 0 -3.647e-07)
(5.74372e-07 0 -9.023e-07)
(1.18531e-06 0 -2.10291e-06)
(2.48954e-06 0 -4.07259e-06)
(5.15582e-06 0 -6.61378e-06)
(1.04456e-05 0 -6.81399e-06)
(1.81576e-05 0 -1.78969e-08)
(1.87008e-05 0 8.22061e-06)
(1.01249e-05 0 5.96931e-06)
(4.12498e-06 0 5.17958e-07)
(3.01909e-06 0 -5.33954e-08)
(3.28245e-06 0 2.308e-07)
(3.96613e-06 0 5.95162e-07)
(4.42441e-06 0 5.00067e-07)
(3.90823e-06 0 2.70101e-07)
(2.68274e-06 0 1.92613e-07)
(1.73945e-06 0 9.39625e-08)
(1.30945e-06 0 -1.29407e-08)
(9.44027e-07 0 -1.64694e-07)
(5.11705e-07 0 -1.83913e-07)
(2.3924e-07 0 -3.05322e-08)
(1.5336e-07 0 3.56846e-08)
(1.29791e-07 0 4.35648e-08)
(1.21108e-07 0 3.85478e-08)
(1.21662e-07 0 4.82797e-09)
(1.32291e-07 0 -9.4291e-08)
(1.71433e-07 0 -3.4801e-07)
(3.60291e-07 0 -1.33917e-06)
(1.06041e-06 0 -4.6805e-06)
(1.83964e-06 0 -7.8746e-06)
(1.45994e-06 0 -5.09584e-06)
(5.06832e-07 0 -2.1196e-06)
(1.02968e-07 0 -1.24735e-06)
(1.18451e-07 0 -1.36473e-06)
(4.05661e-07 0 -1.85507e-06)
(8.06906e-07 0 -2.05664e-06)
(1.14756e-06 0 -1.87348e-06)
(1.53927e-06 0 -1.88179e-06)
(2.13666e-06 0 -2.45511e-06)
(2.40526e-06 0 -3.26792e-06)
(1.8106e-06 0 -2.55438e-06)
(1.0646e-06 0 -1.06145e-06)
(8.96817e-07 0 -3.30264e-07)
(1.32835e-06 0 5.74849e-09)
(2.64874e-06 0 3.46379e-07)
(5.18395e-06 0 6.39263e-07)
(7.59698e-06 0 3.56282e-06)
(6.59037e-06 0 1.01756e-05)
(3.76245e-06 0 7.36876e-06)
(2.65462e-06 0 3.37612e-06)
(2.65038e-06 0 7.18542e-07)
(2.62719e-06 0 -4.07067e-07)
(2.21527e-06 0 -2.48067e-07)
(1.92145e-06 0 1.50827e-07)
(2.1662e-06 0 7.46414e-07)
(2.76034e-06 0 1.57304e-06)
(3.06409e-06 0 2.03894e-06)
(2.7976e-06 0 2.14419e-06)
(2.61895e-06 0 2.86639e-06)
(2.59286e-06 0 3.81767e-06)
(1.90112e-06 0 3.18952e-06)
(9.75067e-07 0 9.65562e-07)
(5.54016e-07 0 4.59727e-08)
(4.20303e-07 0 -5.12885e-08)
(3.65295e-07 0 -6.48786e-08)
(3.4628e-07 0 -1.58909e-07)
(4.68026e-07 0 -6.74384e-07)
(7.35142e-07 0 -2.089e-06)
(6.52888e-07 0 -1.40436e-06)
(4.31308e-07 0 5.8919e-08)
(4.39102e-07 0 4.56554e-07)
(4.08591e-07 0 5.50919e-07)
(3.95325e-07 0 5.7239e-07)
(5.32432e-07 0 6.30879e-07)
(9.14177e-07 0 6.57021e-07)
(1.56408e-06 0 6.80313e-07)
(2.42385e-06 0 6.68239e-07)
(3.48913e-06 0 2.94678e-07)
(5.38493e-06 0 -8.57741e-07)
(7.86613e-06 0 -1.33669e-06)
(6.39492e-06 0 2.86536e-06)
(2.38835e-06 0 1.89814e-06)
(7.1708e-07 0 4.60388e-07)
(3.19271e-07 0 1.07616e-07)
(2.22908e-07 0 5.7225e-09)
(2.9293e-07 0 -1.72838e-07)
(6.4858e-07 0 -6.60685e-07)
(1.36149e-06 0 -1.12868e-06)
(2.29914e-06 0 -1.03658e-06)
(3.18658e-06 0 -7.03837e-07)
(3.68739e-06 0 -3.63779e-07)
(3.57601e-06 0 -1.64822e-07)
(2.97763e-06 0 -2.21244e-07)
(2.29435e-06 0 -2.34999e-07)
(1.80498e-06 0 5.85951e-08)
(1.5078e-06 0 5.9912e-07)
(1.19025e-06 0 1.7071e-06)
(-8.17153e-07 0 3.90316e-06)
(-9.56822e-06 0 7.56061e-06)
(-2.65281e-05 0 1.01842e-05)
(-4.49111e-05 0 8.81002e-06)
(-5.84046e-05 0 6.37376e-06)
(-6.47046e-05 0 4.92895e-06)
(-6.33838e-05 0 5.21228e-06)
(-5.70232e-05 0 4.90471e-06)
(-4.98054e-05 0 4.077e-06)
(-4.37224e-05 0 3.77893e-06)
(-3.85094e-05 0 4.00884e-06)
(-3.35058e-05 0 5.01255e-06)
(-2.77746e-05 0 8.04228e-06)
(-2.11917e-05 0 1.05178e-05)
(-1.51503e-05 0 9.14765e-06)
(-1.03298e-05 0 6.94416e-06)
(-6.97384e-06 0 4.79155e-06)
(-7.26076e-06 0 9.23982e-07)
(-1.45812e-05 0 -4.88128e-06)
(-3.04443e-05 0 -1.08565e-05)
(-5.17367e-05 0 -1.41341e-05)
(-7.23775e-05 0 -1.25165e-05)
(-8.8806e-05 0 -5.64535e-06)
(-0.000101163 0 5.98699e-07)
(-0.000108798 0 4.86444e-06)
(-0.000110884 0 8.33039e-06)
(-0.00010666 0 1.16144e-05)
(-9.61171e-05 0 1.37276e-05)
(-9.30442e-05 0 1.29238e-06)
(-0.000109409 0 -2.58717e-05)
(-8.79347e-05 0 -4.5244e-05)
(-2.79663e-05 0 -2.66838e-05)
(-1.20614e-06 0 -1.18311e-06)
(-3.26884e-08 0 -2.59324e-08)
(-6.13395e-09 0 5.71846e-10)
(-5.18204e-09 0 3.42258e-09)
(-7.18997e-09 0 1.56003e-08)
(-3.75105e-08 0 1.51488e-07)
(-3.63308e-07 0 1.24318e-06)
(-1.3224e-06 0 3.62129e-06)
(-2.39254e-06 0 3.82623e-06)
(-3.21669e-06 0 3.08041e-06)
(-4.63752e-06 0 4.15223e-06)
(-8.18421e-06 0 7.45632e-06)
(-1.15887e-05 0 5.80451e-06)
(-9.92415e-06 0 -6.01221e-07)
(-6.39137e-06 0 -4.91642e-07)
(-5.17098e-06 0 -2.3248e-07)
(-5.0069e-06 0 -3.87688e-07)
(-5.31819e-06 0 -9.55971e-07)
(-6.09774e-06 0 -2.15623e-06)
(-7.45808e-06 0 -3.65943e-06)
(-8.63578e-06 0 -4.89735e-06)
(-7.88526e-06 0 -5.28117e-06)
(-5.63626e-06 0 -3.26949e-06)
(-4.05755e-06 0 -9.11045e-07)
(-3.78782e-06 0 1.67107e-06)
(-4.73416e-06 0 4.73777e-06)
(-8.46065e-06 0 7.30822e-06)
(-1.7415e-05 0 3.76611e-06)
(-2.35473e-05 0 -5.64845e-06)
(-1.95076e-05 0 -5.28711e-06)
(-1.37522e-05 0 -6.14863e-08)
(-1.29175e-05 0 4.19192e-06)
(-1.76137e-05 0 1.24131e-05)
(-4.17212e-05 0 4.9673e-05)
(-0.000111114 0 0.000108334)
(-0.000197784 0 4.11118e-05)
(-0.00026556 0 -8.84758e-06)
(-0.000302212 0 -6.37405e-06)
(-0.000297931 0 -2.33862e-06)
(-0.000262947 0 -1.0791e-06)
(-0.000195428 0 -1.02348e-05)
(-0.000105521 0 -4.57676e-05)
(-3.69535e-05 0 -4.96355e-05)
(-1.08643e-05 0 -1.91312e-05)
(-5.80791e-06 0 -4.95527e-06)
(-5.17657e-06 0 -2.52921e-06)
(-6.75107e-06 0 -4.00189e-06)
(-1.31846e-05 0 -1.10511e-05)
(-2.55955e-05 0 -2.39922e-05)
(-2.86223e-05 0 -2.23025e-05)
(-1.78323e-05 0 -9.36714e-06)
(-9.922e-06 0 -1.57144e-06)
(-9.56652e-06 0 1.75729e-06)
(-1.43227e-05 0 5.7764e-06)
(-2.28966e-05 0 1.21414e-05)
(-2.87556e-05 0 1.29785e-05)
(-2.80306e-05 0 1.25753e-05)
(-2.13825e-05 0 2.39761e-05)
(-6.2048e-07 0 6.27032e-05)
(7.81207e-05 0 0.000130016)
(4.24828e-05 0 -2.17543e-05)
(1.31283e-05 0 -4.17712e-07)
(5.60622e-06 0 6.97073e-06)
(5.61623e-06 0 2.53504e-05)
(1.73259e-05 0 6.74766e-05)
(2.67844e-05 0 6.22685e-05)
(1.75232e-05 0 1.92643e-05)
(5.90828e-06 0 3.99281e-06)
(2.45255e-06 0 6.40931e-07)
(2.13066e-06 0 -2.95366e-07)
(3.32853e-06 0 -1.16555e-06)
(6.76118e-06 0 -2.90341e-06)
(1.37067e-05 0 -5.58034e-06)
(2.32975e-05 0 -7.62661e-06)
(3.21147e-05 0 -8.67032e-06)
(3.76888e-05 0 -1.02563e-05)
(4.06968e-05 0 -1.14693e-05)
(4.38293e-05 0 -6.20722e-06)
(4.54344e-05 0 1.22608e-05)
(3.73211e-05 0 1.8617e-05)
(2.95942e-05 0 1.59592e-06)
(3.54673e-05 0 -5.899e-06)
(4.96055e-05 0 -8.32533e-06)
(6.45761e-05 0 -6.50321e-06)
(6.94335e-05 0 2.28238e-06)
(5.21492e-05 0 1.62878e-05)
(2.38618e-05 0 1.36875e-05)
(7.06617e-06 0 4.33775e-06)
(1.98709e-06 0 1.25226e-06)
(5.26436e-07 0 3.96144e-07)
(1.48992e-07 0 6.50089e-08)
(1.12817e-07 0 2.9185e-08)
(1.37577e-07 0 3.70878e-08)
(1.64709e-07 0 3.85982e-08)
(1.80296e-07 0 3.66101e-08)
(1.88239e-07 0 -1.73092e-09)
(2.04788e-07 0 -1.1491e-07)
(2.6765e-07 0 -4.29395e-07)
(4.90079e-07 0 -1.66908e-06)
(8.525e-07 0 -5.41313e-06)
(7.16135e-07 0 -7.78483e-06)
(1.70284e-07 0 -4.26005e-06)
(-7.71624e-08 0 -1.75482e-06)
(-9.10462e-08 0 -1.19438e-06)
(-4.67494e-08 0 -1.47748e-06)
(2.86874e-08 0 -2.10496e-06)
(1.22436e-07 0 -2.30173e-06)
(2.4296e-07 0 -2.08957e-06)
(4.12326e-07 0 -2.22678e-06)
(5.22313e-07 0 -2.81751e-06)
(3.57385e-07 0 -3.0092e-06)
(7.63995e-08 0 -1.93746e-06)
(-1.44834e-08 0 -8.41487e-07)
(2.97651e-08 0 -4.26694e-07)
(1.10437e-07 0 -4.10026e-07)
(3.12585e-07 0 -7.60393e-07)
(1.27241e-06 0 -1.74901e-06)
(6.00804e-06 0 -1.19759e-06)
(1.5632e-05 0 6.31864e-06)
(2.04578e-05 0 9.22766e-06)
(1.55236e-05 0 7.55897e-06)
(7.71779e-06 0 4.34555e-06)
(2.47944e-06 0 1.22744e-06)
(6.91385e-07 0 3.17394e-07)
(3.42505e-07 0 2.28056e-07)
(3.40246e-07 0 4.26679e-07)
(5.56219e-07 0 1.08262e-06)
(8.11046e-07 0 1.9707e-06)
(1.07308e-06 0 2.21678e-06)
(1.53171e-06 0 2.51373e-06)
(1.991e-06 0 3.73708e-06)
(1.86926e-06 0 4.08356e-06)
(1.28903e-06 0 1.57779e-06)
(8.97051e-07 0 2.46768e-07)
(7.47543e-07 0 3.11361e-08)
(6.62132e-07 0 -6.88465e-09)
(5.87876e-07 0 -1.23632e-07)
(5.94554e-07 0 -8.38085e-07)
(6.34658e-07 0 -2.23252e-06)
(5.0406e-07 0 -1.04799e-06)
(4.42327e-07 0 -1.41388e-08)
(6.96436e-07 0 2.67708e-07)
(1.07515e-06 0 3.91564e-07)
(1.31504e-06 0 5.05118e-07)
(1.32527e-06 0 5.50818e-07)
(1.35709e-06 0 3.23517e-07)
(1.69319e-06 0 2.78047e-08)
(2.88789e-06 0 -7.3372e-07)
(6.34369e-06 0 -2.82446e-06)
(1.21195e-05 0 -5.41036e-06)
(1.48512e-05 0 -1.99759e-06)
(1.02338e-05 0 9.61444e-06)
(4.16935e-06 0 5.21989e-06)
(1.76612e-06 0 1.21315e-06)
(1.14717e-06 0 3.71619e-07)
(9.10635e-07 0 7.46164e-08)
(1.06928e-06 0 -4.70401e-07)
(1.93202e-06 0 -1.58155e-06)
(3.78882e-06 0 -2.77759e-06)
(7.13912e-06 0 -3.67569e-06)
(1.22831e-05 0 -4.09623e-06)
(1.7749e-05 0 -2.93806e-06)
(1.94422e-05 0 8.27824e-07)
(1.53186e-05 0 3.5084e-06)
(9.2736e-06 0 2.76383e-06)
(5.14775e-06 0 1.67507e-06)
(2.93251e-06 0 1.49509e-06)
(1.50856e-06 0 2.55263e-06)
(-7.45906e-07 0 7.31948e-06)
(-7.56774e-06 0 1.97171e-05)
(-1.7318e-05 0 2.47377e-05)
(-2.01359e-05 0 1.54573e-05)
(-1.50596e-05 0 8.14361e-06)
(-9.63443e-06 0 4.03396e-06)
(-6.6917e-06 0 1.84378e-06)
(-5.55164e-06 0 7.72488e-07)
(-5.06319e-06 0 5.0301e-07)
(-4.42773e-06 0 6.34414e-07)
(-3.40333e-06 0 9.15942e-07)
(-1.9845e-06 0 1.68303e-06)
(-3.67938e-07 0 4.02404e-06)
(3.95975e-07 0 7.18924e-06)
(-2.56018e-08 0 6.85636e-06)
(-5.87386e-07 0 4.97673e-06)
(-8.06992e-07 0 3.62262e-06)
(-9.11995e-07 0 2.48484e-06)
(-1.47806e-06 0 1.4444e-06)
(-3.30408e-06 0 5.06885e-07)
(-7.09424e-06 0 -4.14937e-07)
(-1.20881e-05 0 -6.01081e-07)
(-1.47161e-05 0 1.49577e-06)
(-1.28474e-05 0 3.9459e-06)
(-9.26496e-06 0 5.57027e-06)
(-7.20113e-06 0 7.64657e-06)
(-7.10526e-06 0 7.97782e-06)
(-7.37319e-06 0 7.0896e-06)
(-7.68807e-06 0 5.17263e-06)
(-1.6238e-05 0 -4.83638e-06)
(-5.7723e-05 0 -4.62676e-05)
(-7.45814e-05 0 -6.877e-05)
(-3.31757e-05 0 -2.72627e-05)
(-4.8719e-06 0 -3.42357e-06)
(-1.08522e-06 0 -4.15025e-07)
(-6.10795e-07 0 -5.63581e-08)
(-7.01255e-07 0 1.6785e-07)
(-2.72747e-06 0 2.05578e-06)
(-1.56248e-05 0 1.2562e-05)
(-3.88753e-05 0 1.6512e-05)
(-5.34851e-05 0 6.6154e-06)
(-5.53866e-05 0 3.01693e-06)
(-5.2906e-05 0 3.15596e-06)
(-4.40301e-05 0 3.12334e-06)
(-2.5007e-05 0 -5.48113e-06)
(-7.56613e-06 0 -8.42097e-06)
(-1.42585e-06 0 -2.34496e-06)
(-4.37563e-07 0 -5.8784e-07)
(-2.68392e-07 0 -3.65579e-07)
(-2.77713e-07 0 -6.57469e-07)
(-3.76106e-07 0 -1.57679e-06)
(-5.34712e-07 0 -2.71994e-06)
(-1.11427e-06 0 -4.07959e-06)
(-2.52213e-06 0 -5.44159e-06)
(-4.32421e-06 0 -3.55597e-06)
(-6.43253e-06 0 -9.49581e-08)
(-8.86553e-06 0 3.01825e-06)
(-1.21327e-05 0 7.6041e-06)
(-2.17918e-05 0 1.78275e-05)
(-4.90609e-05 0 2.94703e-05)
(-8.48679e-05 0 1.05867e-05)
(-0.000107442 0 -2.98764e-06)
(-0.00011358 0 -1.97884e-06)
(-0.000111477 0 3.17217e-06)
(-0.000123395 0 3.00471e-05)
(-0.000161794 0 9.45453e-05)
(-0.000147338 0 0.000118399)
(-7.44078e-05 0 4.47859e-05)
(-3.06072e-05 0 1.14531e-05)
(-2.07693e-05 0 1.39919e-07)
(-2.6942e-05 0 -6.96057e-06)
(-4.02141e-05 0 -1.81692e-05)
(-4.45708e-05 0 -5.63073e-05)
(-2.90241e-05 0 -0.000105149)
(-1.01989e-05 0 -7.76467e-05)
(-2.60576e-06 0 -2.48024e-05)
(-8.41967e-07 0 -6.10422e-06)
(-3.43085e-07 0 -2.51049e-06)
(-1.61376e-07 0 -2.62782e-06)
(-6.3963e-07 0 -5.51338e-06)
(-5.34197e-06 0 -1.24167e-05)
(-1.84883e-05 0 -1.77048e-05)
(-3.16281e-05 0 -1.1615e-05)
(-3.46574e-05 0 -4.20462e-06)
(-3.18749e-05 0 1.25249e-06)
(-2.84188e-05 0 7.58134e-06)
(-2.19964e-05 0 1.24879e-05)
(-1.3566e-05 0 1.00607e-05)
(-7.70964e-06 0 8.91176e-06)
(-3.40887e-06 0 1.66908e-05)
(5.44034e-06 0 4.03773e-05)
(2.51197e-05 0 5.39214e-05)
(4.3296e-05 0 2.44669e-05)
(1.41866e-05 0 1.18251e-05)
(5.50598e-06 0 1.09307e-05)
(2.15942e-06 0 2.47269e-05)
(5.81147e-06 0 5.27383e-05)
(2.84468e-05 0 4.4913e-05)
(5.5762e-05 0 1.85657e-05)
(6.61002e-05 0 5.96807e-06)
(6.54261e-05 0 2.79544e-06)
(6.20503e-05 0 1.24788e-06)
(5.85606e-05 0 -4.17032e-07)
(5.42275e-05 0 -2.75146e-06)
(4.83985e-05 0 -6.84882e-06)
(4.32065e-05 0 -1.07569e-05)
(4.05376e-05 0 -1.16883e-05)
(3.92258e-05 0 -1.15005e-05)
(3.76092e-05 0 -1.16167e-05)
(3.72586e-05 0 -8.84182e-06)
(4.74184e-05 0 3.12941e-06)
(7.09632e-05 0 1.23145e-05)
(8.60884e-05 0 4.97608e-07)
(8.14703e-05 0 -6.05672e-06)
(6.71491e-05 0 -7.98493e-06)
(5.1305e-05 0 -5.97043e-06)
(4.46902e-05 0 3.50653e-06)
(5.69325e-05 0 2.01049e-05)
(7.03095e-05 0 2.478e-05)
(5.44804e-05 0 2.58691e-05)
(2.18325e-05 0 1.74474e-05)
(3.63829e-06 0 3.85577e-06)
(3.20169e-07 0 3.00936e-07)
(1.42455e-07 0 7.1458e-09)
(1.92291e-07 0 -1.54684e-08)
(2.83537e-07 0 -2.72233e-08)
(4.14236e-07 0 -4.38558e-08)
(5.50275e-07 0 -6.52465e-08)
(6.4449e-07 0 -1.62158e-07)
(7.22622e-07 0 -5.23142e-07)
(7.31611e-07 0 -1.80675e-06)
(2.72445e-07 0 -5.17872e-06)
(-2.9952e-07 0 -7.31091e-06)
(-3.10937e-07 0 -4.1767e-06)
(-1.10716e-07 0 -1.79095e-06)
(8.56271e-09 0 -1.26365e-06)
(1.35741e-07 0 -1.57969e-06)
(2.72326e-07 0 -2.21478e-06)
(4.04523e-07 0 -2.41787e-06)
(5.10971e-07 0 -2.20041e-06)
(5.13602e-07 0 -2.28794e-06)
(3.80225e-07 0 -2.73296e-06)
(1.99838e-07 0 -2.74843e-06)
(7.61074e-08 0 -1.79352e-06)
(4.12376e-08 0 -8.5968e-07)
(8.07416e-08 0 -4.92254e-07)
(1.82071e-07 0 -5.26467e-07)
(4.70122e-07 0 -1.13415e-06)
(1.86673e-06 0 -3.7317e-06)
(7.98678e-06 0 -1.00706e-05)
(2.15241e-05 0 -7.96969e-06)
(3.76942e-05 0 2.51965e-06)
(4.40025e-05 0 1.28924e-05)
(3.00957e-05 0 2.07244e-05)
(1.11341e-05 0 9.04846e-06)
(3.44455e-06 0 1.97394e-06)
(1.76846e-06 0 5.96451e-07)
(1.57065e-06 0 2.58308e-07)
(1.70592e-06 0 8.99688e-07)
(1.61256e-06 0 1.99211e-06)
(1.28698e-06 0 2.25888e-06)
(9.42936e-07 0 2.35702e-06)
(7.86507e-07 0 3.59093e-06)
(7.95673e-07 0 4.3423e-06)
(8.02624e-07 0 1.89234e-06)
(7.88961e-07 0 3.37863e-07)
(8.22862e-07 0 5.56471e-08)
(8.68202e-07 0 8.67502e-09)
(8.95513e-07 0 -9.22463e-08)
(8.27668e-07 0 -8.08304e-07)
(5.63277e-07 0 -2.03802e-06)
(2.76197e-07 0 -8.24822e-07)
(1.73431e-07 0 -7.28121e-08)
(2.014e-07 0 4.43031e-08)
(3.26034e-07 0 1.11622e-07)
(6.15506e-07 0 2.55694e-07)
(1.05849e-06 0 3.47031e-07)
(1.56885e-06 0 -1.48762e-08)
(2.45275e-06 0 -8.53806e-07)
(4.3811e-06 0 -2.97516e-06)
(7.12468e-06 0 -6.78243e-06)
(9.55324e-06 0 -9.65692e-06)
(1.36647e-05 0 -4.59476e-06)
(1.88137e-05 0 1.16795e-05)
(1.67175e-05 0 1.13151e-05)
(1.08924e-05 0 3.34618e-06)
(8.93762e-06 0 8.12332e-07)
(9.58047e-06 0 -7.7241e-07)
(1.28081e-05 0 -3.0096e-06)
(1.88856e-05 0 -5.98259e-06)
(2.68982e-05 0 -8.24588e-06)
(3.37823e-05 0 -8.44171e-06)
(3.52546e-05 0 -5.94643e-06)
(2.99619e-05 0 -1.26085e-06)
(2.01361e-05 0 7.28363e-06)
(1.04273e-05 0 1.08854e-05)
(4.9571e-06 0 6.9023e-06)
(3.2125e-06 0 3.40714e-06)
(2.87828e-06 0 2.3125e-06)
(2.65586e-06 0 3.38157e-06)
(1.19049e-06 0 1.02103e-05)
(-1.9604e-06 0 2.67989e-05)
(-3.27682e-06 0 2.87226e-05)
(-2.00851e-06 0 1.3022e-05)
(-1.01585e-06 0 4.50991e-06)
(-6.30481e-07 0 1.85713e-06)
(-4.68116e-07 0 9.15507e-07)
(-3.57877e-07 0 4.50467e-07)
(-2.55498e-07 0 2.34202e-07)
(-1.60171e-07 0 1.7243e-07)
(-4.92888e-08 0 2.42643e-07)
(1.59687e-07 0 7.28523e-07)
(5.63505e-07 0 2.95817e-06)
(8.96023e-07 0 7.15868e-06)
(5.19341e-07 0 7.68518e-06)
(-2.06375e-07 0 5.43541e-06)
(-4.65824e-07 0 3.643e-06)
(-4.34047e-07 0 2.53769e-06)
(-5.03243e-07 0 2.02681e-06)
(-7.51148e-07 0 1.9984e-06)
(-1.00503e-06 0 2.13759e-06)
(-9.70211e-07 0 1.80541e-06)
(-6.12192e-07 0 1.3593e-06)
(-3.87742e-08 0 1.64026e-06)
(7.64269e-07 0 3.49042e-06)
(9.96307e-07 0 7.43055e-06)
(-3.58425e-07 0 9.45271e-06)
(-2.5008e-06 0 8.02502e-06)
(-3.95259e-06 0 6.00387e-06)
(-4.69104e-06 0 3.62083e-06)
(-1.21255e-05 0 -5.80539e-06)
(-6.06159e-05 0 -4.38834e-05)
(-0.000124602 0 -2.95691e-05)
(-0.000144006 0 -1.00168e-05)
(-0.000131921 0 -9.69337e-06)
(-0.000116473 0 -6.70031e-06)
(-0.000117214 0 7.64265e-06)
(-0.000142166 0 2.15596e-05)
(-0.000154603 0 1.83926e-05)
(-0.000133032 0 1.23609e-05)
(-0.000108278 0 6.22276e-07)
(-9.47172e-05 0 -2.64876e-06)
(-8.36392e-05 0 -4.73693e-06)
(-6.84773e-05 0 -1.30216e-05)
(-4.46751e-05 0 -3.21614e-05)
(-1.79596e-05 0 -2.5897e-05)
(-3.30534e-06 0 -5.66345e-06)
(-5.53046e-07 0 -1.00993e-06)
(-2.68205e-07 0 -3.97499e-07)
(-3.92548e-07 0 -4.91887e-07)
(-8.51108e-07 0 -1.18542e-06)
(-1.50001e-06 0 -2.3038e-06)
(-1.95816e-06 0 -3.45802e-06)
(-2.70819e-06 0 -3.90527e-06)
(-5.03805e-06 0 -9.60355e-07)
(-9.71153e-06 0 4.09123e-06)
(-1.81742e-05 0 9.72769e-06)
(-3.41904e-05 0 2.01781e-05)
(-5.20018e-05 0 3.2724e-05)
(-4.74312e-05 0 3.72722e-05)
(-2.65761e-05 0 1.77368e-05)
(-1.76029e-05 0 3.46336e-06)
(-2.16255e-05 0 1.73033e-06)
(-3.60554e-05 0 1.17904e-05)
(-6.0672e-05 0 5.79634e-05)
(-6.0607e-05 0 0.000104963)
(-2.60339e-05 0 5.89526e-05)
(-3.34995e-06 0 8.61768e-06)
(-7.78765e-07 0 1.24952e-06)
(-5.99411e-07 0 3.26252e-07)
(-8.88727e-07 0 -6.84929e-07)
(-2.95157e-06 0 -9.10996e-06)
(-1.05502e-05 0 -5.34112e-05)
(-1.76834e-05 0 -0.000116458)
(-1.47807e-05 0 -8.8065e-05)
(-7.45507e-06 0 -2.9303e-05)
(-2.9983e-06 0 -7.82421e-06)
(-1.10197e-06 0 -3.18571e-06)
(-2.55109e-07 0 -2.98118e-06)
(1.54782e-07 0 -5.09166e-06)
(-6.30869e-07 0 -7.35046e-06)
(-3.75509e-06 0 -6.50057e-06)
(-8.36399e-06 0 -5.07049e-06)
(-1.22263e-05 0 -3.85756e-06)
(-1.30745e-05 0 -1.02889e-06)
(-1.00674e-05 0 3.39954e-06)
(-5.89082e-06 0 6.07065e-06)
(-3.42258e-06 0 5.57933e-06)
(-2.74214e-06 0 6.85629e-06)
(-3.36917e-06 0 1.50725e-05)
(-4.14755e-06 0 3.39248e-05)
(-4.61326e-06 0 4.11603e-05)
(5.9081e-05 0 5.40898e-05)
(4.0354e-05 0 3.00385e-05)
(1.79671e-05 0 2.37847e-05)
(-1.88258e-06 0 3.50691e-05)
(-8.48112e-06 0 4.53426e-05)
(-1.46938e-06 0 2.26616e-05)
(4.75665e-06 0 7.27573e-06)
(8.3944e-06 0 3.28216e-06)
(1.20964e-05 0 2.45335e-06)
(1.53823e-05 0 1.67999e-06)
(1.70046e-05 0 1.01816e-06)
(1.60454e-05 0 1.10571e-06)
(1.28464e-05 0 -1.67799e-06)
(1.08345e-05 0 -8.7239e-06)
(1.21089e-05 0 -1.23269e-05)
(1.49437e-05 0 -1.23849e-05)
(1.64226e-05 0 -1.05947e-05)
(1.53425e-05 0 -8.4331e-06)
(1.36245e-05 0 -5.72168e-06)
(1.33662e-05 0 -2.12242e-06)
(1.25914e-05 0 5.82425e-07)
(8.99948e-06 0 2.06777e-06)
(5.07116e-06 0 2.13992e-06)
(2.8324e-06 0 1.98746e-06)
(1.66869e-06 0 3.32701e-06)
(1.2023e-06 0 8.50824e-06)
(3.69388e-06 0 2.05076e-05)
(1.31372e-05 0 3.65266e-05)
(1.83054e-05 0 3.42691e-05)
(9.68088e-06 0 1.38526e-05)
(1.63625e-06 0 1.66685e-06)
(3.82572e-07 0 7.2616e-08)
(3.13929e-07 0 -6.2132e-08)
(3.40623e-07 0 -9.84996e-08)
(3.68672e-07 0 -1.31328e-07)
(3.78918e-07 0 -1.24058e-07)
(3.52755e-07 0 -1.71398e-07)
(2.68092e-07 0 -5.07371e-07)
(6.3614e-08 0 -1.62703e-06)
(-4.66053e-07 0 -4.36961e-06)
(-1.12613e-06 0 -6.88799e-06)
(-6.45197e-07 0 -5.06915e-06)
(1.39552e-06 0 -3.13944e-06)
(4.3021e-06 0 -2.94101e-06)
(7.63543e-06 0 -3.36282e-06)
(1.04081e-05 0 -3.34092e-06)
(1.05128e-05 0 -1.52851e-06)
(6.97738e-06 0 3.39135e-07)
(3.14019e-06 0 -9.92988e-07)
(1.60027e-06 0 -2.35466e-06)
(1.05798e-06 0 -2.40407e-06)
(6.51432e-07 0 -1.6076e-06)
(6.03196e-07 0 -9.62495e-07)
(1.08106e-06 0 -9.0681e-07)
(2.38318e-06 0 -1.51536e-06)
(5.64843e-06 0 -3.69855e-06)
(1.41307e-05 0 -1.10461e-05)
(2.4492e-05 0 -1.92376e-05)
(2.38832e-05 0 -1.17313e-05)
(1.68453e-05 0 -2.85119e-06)
(1.97496e-05 0 9.05023e-06)
(2.99107e-05 0 2.83121e-05)
(2.45194e-05 0 2.58137e-05)
(8.95143e-06 0 8.46613e-06)
(3.52771e-06 0 1.204e-06)
(3.18051e-06 0 1.95685e-07)
(3.39376e-06 0 6.13732e-07)
(4.00125e-06 0 1.76391e-06)
(3.91078e-06 0 2.90313e-06)
(2.88167e-06 0 3.08592e-06)
(1.81638e-06 0 4.08374e-06)
(1.33071e-06 0 4.32598e-06)
(1.13048e-06 0 2.10193e-06)
(7.52776e-07 0 5.19634e-07)
(4.90239e-07 0 1.02513e-07)
(3.83448e-07 0 2.32602e-08)
(3.29384e-07 0 -8.0078e-08)
(3.63696e-07 0 -7.8694e-07)
(4.38578e-07 0 -1.86987e-06)
(3.24891e-07 0 -5.92201e-07)
(1.30324e-07 0 -8.10127e-09)
(6.08048e-08 0 2.11425e-08)
(5.19201e-08 0 1.90325e-08)
(8.4739e-08 0 2.59929e-08)
(2.89012e-07 0 -7.05254e-08)
(1.07357e-06 0 -8.9224e-07)
(2.76154e-06 0 -2.54831e-06)
(4.71708e-06 0 -5.16454e-06)
(6.29602e-06 0 -8.91557e-06)
(8.14168e-06 0 -1.1798e-05)
(1.0412e-05 0 -8.83557e-06)
(1.87261e-05 0 2.45684e-06)
(3.46282e-05 0 6.7314e-06)
(4.64667e-05 0 1.91617e-06)
(5.14143e-05 0 -7.50495e-07)
(5.61083e-05 0 -4.54643e-06)
(6.22134e-05 0 -8.56819e-06)
(6.40392e-05 0 -8.32693e-06)
(5.67548e-05 0 -6.62942e-06)
(4.4638e-05 0 -4.82519e-06)
(3.44813e-05 0 -8.78426e-07)
(2.77216e-05 0 5.7238e-06)
(1.94039e-05 0 1.84427e-05)
(9.52192e-06 0 1.93172e-05)
(3.48499e-06 0 9.97766e-06)
(1.52332e-06 0 4.03804e-06)
(1.23689e-06 0 2.30225e-06)
(1.76275e-06 0 3.08835e-06)
(4.04479e-06 0 9.68672e-06)
(6.98754e-06 0 2.75304e-05)
(5.17785e-06 0 3.1117e-05)
(7.32257e-07 0 1.38048e-05)
(-8.94993e-07 0 4.36171e-06)
(-8.45572e-07 0 1.57056e-06)
(-4.71401e-07 0 6.65543e-07)
(-1.79153e-07 0 2.97945e-07)
(-4.78392e-08 0 1.53032e-07)
(-3.9345e-09 0 1.14369e-07)
(2.67006e-08 0 1.59187e-07)
(1.39503e-07 0 4.902e-07)
(7.31407e-07 0 2.20077e-06)
(2.06384e-06 0 6.25112e-06)
(2.13551e-06 0 8.89774e-06)
(2.39104e-07 0 6.84496e-06)
(-1.06427e-06 0 3.79626e-06)
(-1.15415e-06 0 2.44253e-06)
(-9.97595e-07 0 2.03461e-06)
(-8.33678e-07 0 2.07458e-06)
(-5.88341e-07 0 2.06995e-06)
(-2.98759e-07 0 1.54864e-06)
(-1.17372e-07 0 1.07666e-06)
(-5.10495e-08 0 1.28316e-06)
(-4.11345e-08 0 3.03456e-06)
(-4.62195e-07 0 8.07543e-06)
(-2.7994e-06 0 1.24998e-05)
(-6.40961e-06 0 1.07306e-05)
(-7.46421e-06 0 5.80473e-06)
(-5.47506e-06 0 2.56928e-06)
(-3.60306e-06 0 8.08658e-07)
(-4.40386e-06 0 -1.20635e-06)
(-9.2368e-06 0 -3.42732e-06)
(-1.94207e-05 0 -6.57042e-06)
(-3.54971e-05 0 -9.14819e-06)
(-5.31473e-05 0 -5.04309e-06)
(-6.06243e-05 0 1.42028e-05)
(-4.68179e-05 0 2.61456e-05)
(-2.81397e-05 0 7.56538e-06)
(-2.25922e-05 0 -3.93043e-06)
(-2.33722e-05 0 -7.06039e-06)
(-2.38004e-05 0 -8.09826e-06)
(-2.26518e-05 0 -1.1514e-05)
(-2.16673e-05 0 -2.23909e-05)
(-2.34613e-05 0 -4.48002e-05)
(-2.09524e-05 0 -4.24826e-05)
(-1.0461e-05 0 -1.42235e-05)
(-2.93767e-06 0 -2.72548e-06)
(-1.70413e-06 0 -2.00328e-07)
(-2.59903e-06 0 3.30174e-07)
(-4.53852e-06 0 3.90571e-07)
(-8.44436e-06 0 6.74914e-07)
(-1.35393e-05 0 -8.83777e-07)
(-1.28075e-05 0 -6.46138e-06)
(-9.02762e-06 0 1.45725e-07)
(-9.42527e-06 0 8.05627e-06)
(-1.281e-05 0 1.761e-05)
(-1.88605e-05 0 3.43626e-05)
(-2.01899e-05 0 3.76803e-05)
(-1.40244e-05 0 2.15797e-05)
(-8.9851e-06 0 7.53488e-06)
(-8.31293e-06 0 4.01983e-06)
(-1.10562e-05 0 7.93975e-06)
(-1.85488e-05 0 2.75034e-05)
(-2.57471e-05 0 7.40654e-05)
(-1.9831e-05 0 8.28797e-05)
(-7.30652e-06 0 3.39381e-05)
(-1.96832e-06 0 5.61008e-06)
(-1.32575e-06 0 1.04337e-06)
(-1.4391e-06 0 4.66401e-07)
(-2.10585e-06 0 1.3099e-07)
(-5.00677e-06 0 -4.96213e-06)
(-1.62418e-05 0 -3.87254e-05)
(-4.49471e-05 0 -9.53057e-05)
(-7.70808e-05 0 -7.99867e-05)
(-7.96738e-05 0 -4.21139e-05)
(-5.37777e-05 0 -2.53661e-05)
(-2.57587e-05 0 -1.55591e-05)
(-8.13717e-06 0 -9.07615e-06)
(-7.19595e-07 0 -6.82416e-06)
(6.60139e-08 0 -5.61793e-06)
(-1.78241e-06 0 -3.26046e-06)
(-3.31243e-06 0 -2.17168e-06)
(-4.12027e-06 0 -2.08618e-06)
(-4.71453e-06 0 -1.35782e-06)
(-5.69504e-06 0 1.70182e-06)
(-8.59238e-06 0 6.48916e-06)
(-1.77142e-05 0 1.18144e-05)
(-3.58079e-05 0 1.80345e-05)
(-5.34316e-05 0 2.2145e-05)
(-5.65474e-05 0 3.07465e-05)
(-6.37196e-05 0 5.19764e-05)
(9.122e-05 0 3.57888e-05)
(0.000117331 0 4.09556e-05)
(9.68492e-05 0 5.57361e-05)
(5.47243e-05 0 6.50923e-05)
(2.17527e-05 0 5.48895e-05)
(5.57806e-06 0 2.22776e-05)
(9.41896e-07 0 6.06993e-06)
(1.61351e-07 0 1.63075e-06)
(7.23187e-08 0 4.9174e-07)
(1.39422e-07 0 2.88647e-07)
(3.8077e-07 0 5.45834e-07)
(1.31746e-06 0 1.6006e-06)
(3.59756e-06 0 -1.25398e-06)
(8.21693e-06 0 -1.17554e-05)
(1.36829e-05 0 -1.60357e-05)
(1.52031e-05 0 -1.3031e-05)
(1.20892e-05 0 -8.3136e-06)
(8.01023e-06 0 -5.55508e-06)
(4.98766e-06 0 -3.85925e-06)
(3.20942e-06 0 -1.94849e-06)
(2.82468e-06 0 1.56786e-06)
(3.08634e-06 0 4.41252e-06)