/*--------------------------------*- C++ -*----------------------------------*\
  =========                 |
  \\      /  F ield         | OpenFOAM: The Open Source CFD Toolbox
   \\    /   O peration     | Website:  https://openfoam.org
    \\  /    A nd           | Version:  8
     \\/     M anipulation  |
\*---------------------------------------------------------------------------*/
FoamFile
{
    version     2.0;
    format      ascii;
    class       volScalarField;
    location    "900";
    object      c;
}
// * * * * * * * * * * * * * * * * * * * * * * * * * * * * * * * * * * * * * //

dimensions      [1 -3 0 0 0 0 0];

internalField   nonuniform List<scalar> 
20000
(
0.0048932
0.00487229
0.00483541
0.00498805
0.00524455
0.00542433
0.00546979
0.00547712
0.00546093
0.00543478
0.00539958
0.00542878
0.00608063
0.0049072
0.00290636
0.0109871
0.0242641
0.0191135
0.00910252
0.00340175
0.0047914
0.00536443
0.0054433
0.00545454
0.00545528
0.005423
0.0053487
0.00520063
0.00509436
0.00513434
0.00516507
0.0051633
0.00518597
0.00526055
0.00537814
0.00548246
0.00552967
0.00551906
0.00545559
0.00535826
0.00529264
0.00531589
0.00543915
0.00558942
0.005681
0.00571758
0.00566375
0.00557394
0.00543491
0.00531765
0.00525957
0.00525708
0.00535768
0.00557564
0.00593066
0.0062211
0.00449893
0.00418209
0.0052562
0.00546851
0.00550275
0.00552739
0.00555137
0.00556216
0.00553542
0.0055418
0.0050067
0.00470087
0.00503811
0.00502899
0.00524251
0.00551142
0.00555442
0.00554132
0.00552632
0.00550978
0.00549998
0.00549321
0.00545692
0.00530149
0.00712574
0.0142319
0.0126996
0.0147556
0.00579582
0.00463396
0.00525179
0.00537659
0.00543962
0.00546822
0.00547362
0.00546441
0.00544174
0.00546526
0.00548871
0.00549572
0.00550105
0.00554052
0.00568344
0.00552802
0.0053859
0.00544548
0.00547707
0.0054888
0.00549086
0.00548323
0.00548653
0.00548726
0.00547185
0.00550463
0.00556599
0.00560104
0.00555646
0.00554074
0.0055605
0.00556953
0.00551543
0.00541499
0.00538788
0.00542362
0.00545226
0.00546213
0.00546077
0.00545344
0.00544804
0.00545886
0.00547637
0.00548761
0.00549391
0.00549815
0.00550296
0.00550428
0.00549722
0.0054772
0.00542403
0.00525446
0.00509074
0.00530561
0.00553943
0.0056126
0.00557908
0.00552719
0.00550312
0.00550798
0.00555328
0.00565703
0.00574215
0.00564724
0.00557556
0.00552304
0.00549248
0.00545449
0.00534845
0.0051354
0.0051649
0.00613881
0.00675587
0.00660844
0.00603061
0.0055953
0.00545032
0.00539872
0.00540402
0.00545237
0.00547361
0.00549405
0.00549607
0.00550518
0.00550731
0.00551476
0.00550375
0.00548661
0.00548077
0.00548286
0.0054899
0.00550237
0.00549204
0.00519131
0.00539226
0.00585014
0.00574333
0.00566604
0.00531056
0.00467625
0.00552942
0.0122266
0.0052066
0.00540906
0.00551852
0.00552282
0.00553152
0.00553306
0.00551969
0.00550521
0.00549337
0.00548049
0.00547998
0.0055007
0.00552909
0.00553238
0.015778
0.015306
0.0148666
0.0149777
0.0155165
0.016105
0.0163278
0.0163697
0.0163115
0.0162504
0.0161338
0.0162493
0.0234377
0.0189139
0.00813146
0.0196525
0.0325903
0.0251378
0.0107948
0.010727
0.0148269
0.0160808
0.0163431
0.0164231
0.0164739
0.0164674
0.0164053
0.0162018
0.0159824
0.0159498
0.0158116
0.0156903
0.0157598
0.0159607
0.0162093
0.0163933
0.0164636
0.0164567
0.0163802
0.0162395
0.0160391
0.0158919
0.0160423
0.016441
0.01667
0.0167557
0.0166985
0.0166076
0.0164746
0.0163516
0.0162329
0.0162217
0.016442
0.0169038
0.0173469
0.0171665
0.013752
0.0131565
0.0157245
0.0163788
0.0164824
0.0165267
0.0165737
0.01661
0.0166487
0.0166669
0.0159063
0.0155179
0.0157482
0.0150096
0.0148986
0.0161919
0.0164884
0.0164999
0.0164905
0.0164796
0.0164737
0.0164689
0.0164532
0.0162476
0.0153197
0.0195558
0.0106059
0.0196032
0.0127372
0.0152478
0.0160088
0.0161744
0.0163251
0.0164347
0.0164639
0.0164267
0.0164076
0.0164116
0.0164348
0.0164522
0.0164824
0.0166312
0.0169682
0.0165541
0.0161854
0.0162925
0.0163599
0.0163949
0.0164168
0.016443
0.0164563
0.0164492
0.0164212
0.0164344
0.0167423
0.0172234
0.0167782
0.0164664
0.0164686
0.0164716
0.0163539
0.0161713
0.0161683
0.0162967
0.0163801
0.0164035
0.0163929
0.0163523
0.0163238
0.0163648
0.0164229
0.0164504
0.0164607
0.0164645
0.0164645
0.0164542
0.0164025
0.0162388
0.0160064
0.0158601
0.0158345
0.0162085
0.0165399
0.0166228
0.0165116
0.0163853
0.0163361
0.0163446
0.0164308
0.0168636
0.0173029
0.0171368
0.0168304
0.016593
0.0164371
0.0162816
0.0160232
0.0156951
0.0159521
0.0179739
0.0188761
0.0182084
0.0171643
0.0166246
0.016568
0.0164129
0.0164227
0.0163509
0.0164297
0.0164318
0.0164727
0.016477
0.0164996
0.016494
0.0164666
0.016433
0.0164225
0.0164341
0.016458
0.0164877
0.0164014
0.0156933
0.0161112
0.0172739
0.0173543
0.0171603
0.0154205
0.0145606
0.0126312
0.0201867
0.0141842
0.0164147
0.0165094
0.0165087
0.016516
0.0165169
0.016501
0.0164853
0.0164733
0.0164631
0.0164734
0.016515
0.016536
0.0165617
0.0262265
0.0252978
0.0248793
0.0246812
0.0255806
0.025768
0.0261546
0.0265178
0.0268742
0.0268764
0.026484
0.0274751
0.0444892
0.0382864
0.0209974
0.0234016
0.0322262
0.029728
0.0173234
0.0205911
0.0250328
0.0267696
0.0272078
0.0273474
0.027427
0.0274633
0.0274461
0.027342
0.027209
0.027039
0.026793
0.0265782
0.0266525
0.026918
0.0271539
0.0272419
0.0272573
0.027275
0.0273186
0.027345
0.0272118
0.0267516
0.0265128
0.0268283
0.027226
0.0274483
0.0274876
0.0274767
0.0274314
0.0274137
0.027363
0.0274348
0.0276671
0.0280601
0.0283268
0.0278833
0.0244611
0.0234475
0.0260435
0.0271253
0.0273296
0.0274096
0.0274447
0.0274533
0.0274189
0.0274093
0.0273758
0.0273441
0.0271783
0.0255346
0.0246908
0.0263786
0.027021
0.0272602
0.0273582
0.0273976
0.0274123
0.027422
0.0274354
0.0274926
0.0279556
0.0287309
0.0117907
0.0297565
0.0267936
0.0269525
0.0270196
0.0270654
0.027196
0.0273426
0.0274198
0.0274207
0.027399
0.0273972
0.0273979
0.0273961
0.0274617
0.0277092
0.028036
0.0274991
0.0270521
0.0270561
0.0271506
0.0272657
0.0273551
0.0273951
0.0274015
0.0273899
0.0273393
0.0272446
0.0277954
0.0313214
0.0285788
0.0267904
0.0270192
0.0271827
0.0271244
0.0269437
0.0269458
0.0271528
0.0273127
0.0273609
0.0273381
0.0272424
0.0271261
0.02725
0.0273629
0.0274013
0.0274058
0.0274021
0.02739
0.0273516
0.0272028
0.0267819
0.026468
0.0266686
0.0270407
0.0273333
0.0274915
0.0274734
0.027298
0.0271719
0.02714
0.0271173
0.0271147
0.02754
0.0282285
0.0282764
0.028003
0.0275721
0.0271974
0.0270607
0.02704
0.02712
0.0279904
0.0299816
0.0302798
0.029262
0.0282595
0.0278501
0.0277349
0.0276537
0.0275338
0.0274449
0.0273908
0.0274007
0.0273944
0.0274204
0.0274195
0.0274025
0.0273671
0.0273359
0.0273508
0.0273919
0.0274235
0.027444
0.027209
0.026404
0.0268463
0.0280797
0.0284644
0.0280498
0.0256519
0.0257348
0.0266623
0.0298393
0.0275623
0.0275137
0.0274598
0.0274418
0.0274349
0.0274312
0.0274293
0.0274293
0.0274318
0.0274421
0.0274691
0.0275018
0.0275351
0.0275284
0.0352229
0.0343098
0.0339249
0.0350787
0.0352899
0.0348807
0.0339046
0.0351106
0.0367294
0.0363382
0.0348615
0.0408013
0.048671
0.0252682
0.0192999
0.0212414
0.0303482
0.0394594
0.0303503
0.0308765
0.0349103
0.0374319
0.0380998
0.0383042
0.0384343
0.0385088
0.0384483
0.0383163
0.0381993
0.0380886
0.0378719
0.0376182
0.0376848
0.0379699
0.0381232
0.0381267
0.0380739
0.0380692
0.0381947
0.0385079
0.038777
0.0381547
0.0367993
0.0365605
0.0371915
0.0378277
0.0381615
0.0383061
0.0383741
0.0384215
0.0385499
0.0384511
0.0383983
0.0385302
0.0388119
0.0384729
0.0364579
0.0348049
0.0365379
0.037395
0.0377768
0.0379736
0.0380929
0.0381462
0.0380931
0.0381477
0.0382637
0.0382866
0.0380691
0.0366375
0.0355547
0.0368102
0.0375619
0.0378543
0.0380856
0.0382334
0.0382997
0.0383307
0.0383556
0.0384259
0.038819
0.0389691
0.026985
0.0390514
0.0382935
0.0381074
0.0380818
0.0380623
0.0380817
0.0381891
0.0382863
0.0383457
0.0383604
0.0383612
0.0383589
0.0383731
0.0384504
0.0386981
0.0388735
0.0384157
0.0379973
0.0378745
0.0379624
0.0381513
0.0382804
0.0383203
0.0383265
0.0383068
0.0382094
0.0379058
0.039171
0.0561147
0.0491105
0.0365652
0.0368695
0.0378841
0.0380769
0.0379919
0.0376729
0.037659
0.0379958
0.0382132
0.0382259
0.03798
0.0377095
0.0380622
0.038304
0.0383485
0.0383441
0.0383341
0.0383126
0.0382523
0.0380074
0.0373531
0.0371542
0.0374461
0.0378777
0.0381368
0.03829
0.0383917
0.0383463
0.0382345
0.0381495
0.0380235
0.0379136
0.0381239
0.0385849
0.0387701
0.0387787
0.0384838
0.0381303
0.0380649
0.0382291
0.0384839
0.0393736
0.0413095
0.0415185
0.0409481
0.0394174
0.0388807
0.0386928
0.0385553
0.0384018
0.0383452
0.0382861
0.0382885
0.0382796
0.0383027
0.0383055
0.0382918
0.0382625
0.0382554
0.0382865
0.0383364
0.0383962
0.038394
0.0378829
0.0372791
0.0378701
0.0385684
0.0388001
0.0385141
0.0372884
0.0374643
0.0384087
0.0398678
0.0388609
0.0384862
0.0383847
0.0383606
0.038353
0.0383502
0.0383511
0.038354
0.0383595
0.0383728
0.0384034
0.0384693
0.0384709
0.0384717
0.0463216
0.0459507
0.0461266
0.0464734
0.0457953
0.0443956
0.0404905
0.036022
0.0335161
0.0382973
0.0463243
0.0521499
0.0530465
0.0309686
0.0322964
0.0448914
0.0497801
0.048692
0.0434617
0.0397848
0.0431757
0.048228
0.0497177
0.0499217
0.0500966
0.0500429
0.0497026
0.0493353
0.049151
0.0490241
0.0487814
0.0485127
0.0486089
0.0489348
0.049069
0.0490539
0.0489451
0.0488193
0.0488937
0.0504724
0.0521256
0.0501026
0.0465593
0.0460792
0.0468714
0.0477639
0.0485745
0.0490814
0.0494952
0.049628
0.0492138
0.0485116
0.048227
0.0486728
0.0491054
0.0492924
0.048264
0.0473476
0.0479188
0.0482283
0.0484085
0.048561
0.0486612
0.0482257
0.0472704
0.047419
0.0480786
0.0480588
0.0474623
0.0470153
0.0471236
0.0478985
0.0482555
0.0484206
0.0486686
0.0489195
0.0490871
0.0491637
0.0492131
0.0492728
0.0494503
0.0496609
0.0474021
0.0495168
0.0491554
0.0491166
0.049105
0.0490731
0.0489937
0.0489793
0.0490857
0.0492063
0.0492568
0.0492702
0.0492775
0.0493014
0.0494118
0.0496678
0.0497367
0.0493963
0.0490005
0.0487949
0.0487778
0.049018
0.0491723
0.0492229
0.0492279
0.0491933
0.0489468
0.0479601
0.0523316
0.0810836
0.0786347
0.0572834
0.0457976
0.0479589
0.0488581
0.0489085
0.0484255
0.0480154
0.0483235
0.0486355
0.0487343
0.0482294
0.0478638
0.0487097
0.0492194
0.0492673
0.0492644
0.0492465
0.0492249
0.0491425
0.0487611
0.0478139
0.0481936
0.0481179
0.0485013
0.0487993
0.0490971
0.0494439
0.0495412
0.0493911
0.0491708
0.0489864
0.0489094
0.0490456
0.0492259
0.0493278
0.0493847
0.0493389
0.0492648
0.0492843
0.04932
0.0493885
0.0499839
0.051981
0.0525925
0.0576119
0.0506642
0.049613
0.0494027
0.0492659
0.0492016
0.0492031
0.0491977
0.0491919
0.0491862
0.0491956
0.0491972
0.0491889
0.049174
0.0491739
0.049223
0.0493095
0.0494145
0.0492805
0.04855
0.0482868
0.0488967
0.0491897
0.0492379
0.0491899
0.0490215
0.0489635
0.0491952
0.0500067
0.050189
0.0496113
0.049299
0.0492612
0.0492567
0.0492571
0.0492579
0.0492592
0.0492623
0.0492699
0.0492905
0.0494124
0.0494231
0.0493291
0.0578955
0.0587885
0.0590249
0.0586078
0.0577454
0.0545531
0.0453376
0.0371149
0.0344365
0.0359338
0.0391429
0.0476374
0.0662727
0.0558794
0.0573968
0.0596301
0.0596954
0.0587049
0.0546329
0.0469276
0.0487308
0.058452
0.0626932
0.0620842
0.0615797
0.0610593
0.0605716
0.0602386
0.0600178
0.0597625
0.0595427
0.0590977
0.0592757
0.0597264
0.0599204
0.0599162
0.0597258
0.0591895
0.0594969
0.0700693
0.0713777
0.0643524
0.0546976
0.055493
0.0566766
0.0570911
0.0576817
0.0591567
0.0600579
0.0602796
0.0601362
0.0597032
0.0594736
0.0597377
0.0598869
0.0599813
0.0598339
0.0595901
0.0595747
0.0596452
0.0596611
0.059636
0.0592929
0.0575067
0.0552736
0.0555986
0.0573921
0.0579043
0.0579624
0.0582864
0.0587698
0.0591507
0.0592591
0.0592404
0.0592923
0.0595271
0.0598148
0.0599601
0.0600634
0.060127
0.0602161
0.060228
0.0599238
0.0600432
0.0600166
0.0600427
0.0601194
0.0600799
0.0599407
0.0597992
0.0598241
0.0600097
0.0601333
0.0601582
0.060175
0.0602119
0.0603665
0.0606705
0.0607158
0.0604204
0.0601318
0.0598392
0.0597598
0.0598487
0.0600289
0.0601035
0.06012
0.0599231
0.0585807
0.0626648
0.0816362
0.0880402
0.08542
0.0597755
0.0542269
0.0586105
0.0596801
0.0598554
0.0595415
0.0591005
0.0590683
0.0591969
0.0589013
0.0580039
0.0574254
0.0589392
0.0600309
0.060184
0.0601348
0.0601341
0.0601256
0.0600806
0.0590401
0.0578273
0.0618716
0.0588565
0.0592086
0.0596893
0.0600958
0.0604652
0.0606373
0.06046
0.0601705
0.0599752
0.0599764
0.0600764
0.0601301
0.0601505
0.0601627
0.0601718
0.0601768
0.0601778
0.0601376
0.0599257
0.0600879
0.0645352
0.0668889
0.0917751
0.0647845
0.0597026
0.0599283
0.0600051
0.0600425
0.0600666
0.0600808
0.0600801
0.0600837
0.0600858
0.0600847
0.0600748
0.0600659
0.0600891
0.0601311
0.0601749
0.0601932
0.0600736
0.0595145
0.0593568
0.0597167
0.059945
0.0600301
0.0600457
0.0600327
0.0600288
0.060073
0.0603659
0.0611767
0.0608145
0.0602206
0.0601411
0.0601379
0.0601379
0.0601376
0.0601363
0.0601276
0.0601041
0.0599857
0.0609459
0.0603768
0.0600809
0.0684403
0.0700123
0.070259
0.069937
0.0692009
0.0675854
0.0651684
0.0623922
0.0612657
0.0577972
0.0500161
0.0530316
0.0698135
0.0731195
0.0709452
0.070407
0.0698323
0.0689974
0.06555
0.0558555
0.0539295
0.0617855
0.0710639
0.0713388
0.071076
0.0710203
0.0709771
0.0709328
0.0709231
0.0710449
0.0707785
0.069882
0.0697512
0.0701572
0.0704541
0.0705013
0.0701497
0.0691702
0.0729265
0.0909807
0.0862931
0.0778828
0.0612013
0.0645142
0.0670741
0.0657869
0.0645451
0.0676313
0.0703712
0.0708822
0.0709042
0.0708512
0.0708222
0.0708125
0.0708011
0.0707623
0.0707095
0.0707059
0.0707519
0.0707938
0.0707513
0.0706244
0.070152
0.0683013
0.0658182
0.0667306
0.0689927
0.0695082
0.0692909
0.0693947
0.069777
0.0701727
0.0702644
0.0701944
0.0701242
0.070305
0.0704073
0.0707062
0.0708459
0.0709636
0.0709627
0.0708763
0.0706141
0.0706998
0.0708158
0.0709447
0.0710599
0.0711365
0.071094
0.0708832
0.0706963
0.0707931
0.0710027
0.0710923
0.0710851
0.0711362
0.071336
0.0717149
0.071577
0.0713538
0.0711799
0.0710492
0.0709429
0.0709782
0.071022
0.0710462
0.0710023
0.070433
0.0683838
0.0767077
0.0921763
0.0909602
0.0874851
0.0609601
0.0659954
0.06994
0.0706829
0.0708563
0.0708461
0.0706942
0.0704914
0.0702482
0.0698376
0.0685097
0.0661745
0.0676959
0.0705279
0.0711189
0.0709614
0.0709125
0.0710464
0.0713754
0.0691316
0.0737307
0.0805541
0.0704233
0.070494
0.0709024
0.0711699
0.0714645
0.0717067
0.0715397
0.071115
0.0709308
0.0709527
0.0709878
0.0710047
0.0710082
0.0710071
0.0710002
0.0709853
0.0709342
0.0707271
0.0698511
0.0721789
0.0880934
0.0828852
0.111112
0.0786788
0.0694141
0.0704959
0.0707974
0.0708803
0.0709261
0.0709987
0.0710356
0.0710358
0.0709986
0.070971
0.0709198
0.0709038
0.0709111
0.0709336
0.0709539
0.0709521
0.0708956
0.0706523
0.0703813
0.0704767
0.0707013
0.0708348
0.0708929
0.0709097
0.0709213
0.0709408
0.0710794
0.0717611
0.071911
0.0711892
0.0709767
0.0709942
0.0709933
0.0709896
0.0709656
0.0708718
0.0706572
0.0704198
0.0750702
0.0720642
0.070411
0.0748083
0.0796378
0.0799295
0.079554
0.0787146
0.0787157
0.0790419
0.0798027
0.0801962
0.07892
0.0727055
0.0680802
0.0771884
0.0815102
0.0812683
0.0811029
0.0806916
0.0799092
0.0763191
0.0679103
0.0669917
0.0768875
0.0808968
0.0813264
0.0814617
0.081615
0.081729
0.0818331
0.0819761
0.0822479
0.0823393
0.0815148
0.0810204
0.0811081
0.0811869
0.0811863
0.0809188
0.0794073
0.0780839
0.0950202
0.0800869
0.0694037
0.066243
0.0766954
0.081176
0.0788393
0.0715623
0.0735644
0.0794733
0.0812283
0.081547
0.0816145
0.0816489
0.0816561
0.0816462
0.0816152
0.0816002
0.0816095
0.0816524
0.0816801
0.0816264
0.0813244
0.0805271
0.0795211
0.0790066
0.0798237
0.0805427
0.080571
0.0803225
0.0801927
0.0804714
0.0808863
0.0811302
0.0811143
0.0812042
0.0810716
0.0808916
0.0803961
0.0809585
0.0811123
0.0812297
0.0810712
0.0810896
0.0814546
0.0816861
0.0818183
0.0819604
0.0820613
0.0821415
0.0820431
0.0818042
0.0816274
0.0818033
0.0819231
0.081958
0.0819336
0.0820711
0.0824363
0.0823493
0.0821406
0.0820509
0.0820471
0.0820653
0.0820218
0.0819164
0.0818576
0.0818223
0.0817081
0.0800799
0.072645
0.0952771
0.0906957
0.0748413
0.0669768
0.0824342
0.0816032
0.0817254
0.0817849
0.0818019
0.0817846
0.0817507
0.0816524
0.0814182
0.0802086
0.0771381
0.0757025
0.0787321
0.0815139
0.081806
0.0817453
0.0820021
0.0826903
0.0779295
0.0745661
0.0860922
0.0822853
0.0822923
0.0823826
0.082327
0.0825092
0.0829724
0.0826763
0.0820011
0.0818245
0.0818203
0.0818351
0.0818468
0.081861
0.0818778
0.0818595
0.0817916
0.081612
0.0812225
0.0799409
0.0768674
0.107374
0.089607
0.112556
0.0834159
0.0793362
0.0812182
0.081618
0.0817015
0.0817444
0.0817778
0.0818077
0.0817976
0.0817834
0.0817489
0.0817056
0.0817015
0.0817313
0.0817764
0.0817958
0.0817884
0.0817292
0.081543
0.0812667
0.0812411
0.081451
0.0816285
0.0817161
0.0817512
0.081761
0.0817636
0.0817967
0.0821347
0.0828547
0.0826123
0.0815473
0.081828
0.081841
0.0818154
0.0817423
0.0814809
0.0810765
0.0799074
0.0859365
0.0846735
0.0803936
0.0810905
0.0893259
0.0903587
0.0904096
0.0895404
0.0890813
0.0886695
0.090249
0.0902854
0.0893207
0.0861792
0.080403
0.0830253
0.0883071
0.0914105
0.0920604
0.0925326
0.0913639
0.0882783
0.07913
0.0810811
0.0887175
0.0916855
0.0923091
0.0921584
0.0921123
0.0922882
0.0925093
0.0927957
0.0932583
0.0931804
0.0923772
0.0921272
0.092236
0.0923018
0.0922766
0.0919533
0.090562
0.0884215
0.098481
0.0733061
0.0697928
0.0808795
0.0929644
0.09494
0.0934631
0.0817978
0.0781605
0.0829749
0.0886418
0.0910536
0.0919328
0.0922449
0.0923759
0.0924093
0.0924177
0.0924236
0.0924573
0.0925959
0.0925802
0.0922245
0.091202
0.0904604
0.0902454
0.0907008
0.0913398
0.0916641
0.0916539
0.091385
0.0911293
0.0913757
0.091578
0.0916839
0.091685
0.0915447
0.091252
0.0908268
0.090821
0.0914628
0.0918471
0.0919232
0.0914667
0.0911443
0.0919491
0.0922978
0.092646
0.0928135
0.0929477
0.0930363
0.0930648
0.0927183
0.092291
0.0923105
0.0925819
0.0927028
0.0927471
0.092956
0.0934
0.0935158
0.093112
0.0929118
0.092927
0.0929314
0.092816
0.0926422
0.0925474
0.0925411
0.0925683
0.0923801
0.0820388
0.104594
0.0781423
0.0772008
0.086198
0.0968469
0.0933033
0.0927491
0.0926566
0.0926188
0.0926111
0.0926059
0.0925993
0.0926007
0.0924946
0.0905381
0.0859171
0.0867773
0.0909582
0.0923744
0.0925083
0.092615
0.0930161
0.0877011
0.0800396
0.0919336
0.0933245
0.0931358
0.0930995
0.0929368
0.0940143
0.0960951
0.0954834
0.0928481
0.0926151
0.0925628
0.0925586
0.0926214
0.0929177
0.093403
0.0933598
0.0928574
0.0922551
0.0918325
0.0909545
0.0872201
0.11552
0.0953505
0.110524
0.0971241
0.0892662
0.0919858
0.0924211
0.0925162
0.0925319
0.0925348
0.0925579
0.0925767
0.0925865
0.09257
0.092559
0.0925493
0.0925992
0.092624
0.0926343
0.092608
0.0924779
0.092202
0.0919014
0.0919747
0.0922522
0.092448
0.0925362
0.0925748
0.0925881
0.0925885
0.0925914
0.0927102
0.0934685
0.0941143
0.0918288
0.0926865
0.0927365
0.0927355
0.0926511
0.0923144
0.0919895
0.0919633
0.0958423
0.095895
0.0902335
0.091387
0.100854
0.102188
0.101917
0.100892
0.0988807
0.0978877
0.0993504
0.0999716
0.0997176
0.0978597
0.0928368
0.0873278
0.0909581
0.0996559
0.106778
0.111108
0.110737
0.104444
0.0919063
0.0886288
0.0936841
0.10134
0.104226
0.101667
0.101177
0.102774
0.105734
0.105254
0.103934
0.10289
0.102503
0.102876
0.103212
0.103312
0.103264
0.103028
0.102099
0.10213
0.113218
0.0812614
0.0753651
0.0958199
0.103436
0.105423
0.103533
0.0898208
0.0823281
0.0868301
0.0939883
0.0982413
0.1006
0.102101
0.102788
0.102956
0.10296
0.10287
0.102947
0.103015
0.103053
0.102737
0.101945
0.101281
0.101119
0.101614
0.102204
0.102526
0.102541
0.102314
0.10205
0.101899
0.10194
0.101713
0.101473
0.101823
0.10218
0.102238
0.102201
0.102659
0.103423
0.103559
0.102386
0.101308
0.100616
0.100883
0.102485
0.103832
0.103775
0.103734
0.103787
0.103623
0.103182
0.103011
0.103218
0.103501
0.10368
0.103877
0.104235
0.104463
0.104022
0.103489
0.103471
0.103532
0.103515
0.103425
0.103365
0.103351
0.103434
0.103983
0.106649
0.115001
0.0811045
0.0789454
0.0987985
0.106702
0.104336
0.103603
0.103471
0.103369
0.103303
0.103303
0.103332
0.103337
0.103258
0.102601
0.0984567
0.0956273
0.100101
0.102804
0.103286
0.103376
0.103217
0.100705
0.0977625
0.102613
0.103061
0.103104
0.102779
0.102312
0.105671
0.112545
0.113756
0.10433
0.103376
0.10333
0.103313
0.103389
0.103738
0.104456
0.105068
0.105386
0.102972
0.102555
0.102061
0.1053
0.122899
0.102274
0.108753
0.0989769
0.101529
0.10307
0.103296
0.103338
0.103324
0.103313
0.103334
0.103361
0.103369
0.103375
0.103384
0.103468
0.103549
0.103612
0.103589
0.103312
0.102908
0.102691
0.102715
0.102935
0.103154
0.103283
0.103353
0.103392
0.103412
0.103428
0.103443
0.103476
0.103841
0.104428
0.102687
0.103412
0.103472
0.103491
0.103492
0.103284
0.102935
0.103426
0.108457
0.10579
0.101305
0.105221
0.111135
0.112479
0.112048
0.11103
0.108306
0.107946
0.110572
0.112861
0.113139
0.112775
0.108787
0.094695
0.0937463
0.111059
0.124772
0.131844
0.12806
0.118227
0.106227
0.0989536
0.0984023
0.100651
0.105721
0.106957
0.111122
0.122518
0.12732
0.123023
0.115959
0.111653
0.111842
0.113164
0.113859
0.114068
0.114181
0.114184
0.113675
0.114869
0.123086
0.106652
0.0942985
0.108382
0.112596
0.114261
0.111868
0.0983815
0.0898961
0.0951696
0.102814
0.106985
0.109202
0.110732
0.111208
0.111239
0.110872
0.110961
0.111954
0.113009
0.113601
0.113519
0.113199
0.112479
0.112035
0.112126
0.112552
0.112613
0.112346
0.112029
0.112149
0.112513
0.112734
0.112607
0.112446
0.112743
0.113197
0.113356
0.113132
0.113395
0.114144
0.1143
0.113994
0.113656
0.112674
0.11133
0.112719
0.114115
0.114305
0.114449
0.114597
0.11445
0.1141
0.113826
0.113979
0.114238
0.11449
0.114697
0.114936
0.115079
0.114423
0.113972
0.114074
0.114208
0.114247
0.114271
0.11429
0.114379
0.114595
0.115653
0.120809
0.123189
0.0947116
0.0840935
0.110654
0.116632
0.11485
0.114166
0.11411
0.114035
0.113961
0.113951
0.113987
0.113987
0.113845
0.113158
0.110046
0.105649
0.109303
0.112933
0.113839
0.114032
0.113661
0.112529
0.11116
0.112304
0.11274
0.113047
0.112573
0.111559
0.114008
0.126355
0.127917
0.113762
0.113879
0.114115
0.114167
0.114196
0.114252
0.114483
0.115873
0.120819
0.11587
0.113294
0.112882
0.130237
0.124985
0.110212
0.109427
0.102681
0.115135
0.114404
0.114209
0.11411
0.113979
0.113931
0.113958
0.114043
0.114084
0.114126
0.114174
0.114271
0.114379
0.114455
0.114432
0.113979
0.113566
0.11361
0.113813
0.113929
0.114005
0.114078
0.114145
0.114179
0.114198
0.114209
0.114227
0.114291
0.114436
0.114492
0.114106
0.114198
0.114207
0.11421
0.114221
0.114174
0.113873
0.114339
0.121449
0.115826
0.112256
0.1189
0.121613
0.12152
0.120346
0.118838
0.116309
0.117629
0.124409
0.126204
0.126356
0.125616
0.121435
0.106033
0.0948308
0.102533
0.115453
0.136494
0.134655
0.126875
0.122018
0.117954
0.1104
0.119856
0.118098
0.113546
0.120219
0.129747
0.135546
0.132767
0.123998
0.119082
0.119968
0.122676
0.124373
0.124893
0.125114
0.125352
0.125518
0.126644
0.131117
0.125331
0.115652
0.119005
0.121804
0.123503
0.123471
0.116612
0.10771
0.111624
0.116716
0.119505
0.121165
0.121962
0.119806
0.116689
0.116346
0.118411
0.120856
0.122621
0.123504
0.123887
0.123472
0.122545
0.121414
0.121161
0.12141
0.12163
0.121743
0.122204
0.122744
0.12321
0.123545
0.123499
0.123279
0.123362
0.123854
0.124073
0.123916
0.123804
0.124437
0.124808
0.124867
0.12488
0.124859
0.124195
0.124103
0.125008
0.125227
0.125172
0.125178
0.125213
0.12498
0.124815
0.124719
0.124971
0.125449
0.12593
0.125668
0.125111
0.124714
0.124735
0.12489
0.125012
0.125089
0.125226
0.125587
0.126096
0.126363
0.12682
0.129572
0.128122
0.112792
0.10188
0.121963
0.126547
0.125033
0.124538
0.124707
0.124698
0.124631
0.124566
0.124501
0.12436
0.123945
0.123003
0.120763
0.117343
0.118942
0.122178
0.124091
0.12445
0.124371
0.123425
0.121995
0.120899
0.121296
0.124018
0.124787
0.123614
0.124654
0.136737
0.136138
0.124534
0.12524
0.125107
0.125021
0.125015
0.125082
0.125317
0.126548
0.1352
0.131722
0.127266
0.12807
0.129541
0.113656
0.109468
0.121371
0.123594
0.126756
0.125904
0.125244
0.124076
0.123751
0.124207
0.124584
0.124738
0.124805
0.124807
0.124769
0.124737
0.124773
0.124885
0.124927
0.12472
0.124538
0.124673
0.124769
0.124787
0.124772
0.124849
0.124911
0.124938
0.124951
0.124968
0.125026
0.125113
0.125167
0.125104
0.124977
0.124966
0.124963
0.124965
0.124977
0.124979
0.124831
0.124714
0.129197
0.124614
0.123873
0.132952
0.132412
0.129572
0.125277
0.118287
0.121409
0.134528
0.142784
0.143034
0.140672
0.136831
0.128421
0.112222
0.0989995
0.104378
0.119603
0.139256
0.138647
0.13422
0.13321
0.133237
0.132592
0.136971
0.124345
0.113045
0.114313
0.11833
0.136131
0.138218
0.131773
0.126924
0.127253
0.131016
0.134714
0.135809
0.136007
0.136132
0.136495
0.137554
0.139408
0.135762
0.128567
0.127854
0.130726
0.132542
0.132758
0.131144
0.128349
0.129758
0.132022
0.133689
0.135034
0.135231
0.12995
0.12296
0.124689
0.129009
0.131533
0.132842
0.133525
0.133566
0.132443
0.129831
0.128156
0.128691
0.13089
0.132631
0.133448
0.133773
0.133781
0.133723
0.133504
0.133073
0.133593
0.134196
0.134614
0.134852
0.134839
0.134935
0.135366
0.135566
0.135611
0.135638
0.13567
0.135622
0.135586
0.135705
0.135716
0.135736
0.135796
0.135793
0.135717
0.135551
0.13543
0.135546
0.136487
0.137578
0.135891
0.135147
0.135264
0.135517
0.135769
0.135823
0.135974
0.136223
0.136575
0.136788
0.136831
0.136856
0.137545
0.137771
0.133689
0.129168
0.134677
0.136253
0.135291
0.135185
0.135362
0.135396
0.13532
0.135089
0.134758
0.134429
0.134121
0.133801
0.132885
0.130459
0.129144
0.130909
0.133302
0.134158
0.13427
0.133408
0.131227
0.12893
0.128939
0.135343
0.138606
0.138391
0.137803
0.143815
0.143078
0.139173
0.138388
0.136472
0.135987
0.135954
0.136406
0.137817
0.140073
0.145419
0.142103
0.137856
0.139041
0.124722
0.113799
0.111305
0.129413
0.136842
0.136679
0.136327
0.135754
0.134973
0.135201
0.135545
0.135583
0.135585
0.135573
0.135468
0.135312
0.135187
0.135186
0.135266
0.135374
0.13545
0.135527
0.135659
0.135727
0.135687
0.135604
0.135652
0.135697
0.135677
0.135698
0.135787
0.135972
0.136068
0.135982
0.135836
0.13574
0.135721
0.1357
0.135704
0.135708
0.135747
0.135854
0.136134
0.137186
0.136062
0.135767
0.143928
0.142045
0.136211
0.122484
0.115996
0.122908
0.141396
0.154907
0.154165
0.150545
0.145625
0.13837
0.126382
0.115647
0.127498
0.145391
0.148684
0.145156
0.140738
0.139738
0.139162
0.139689
0.132577
0.115121
0.10959
0.11274
0.129499
0.14692
0.145265
0.140298
0.135056
0.133528
0.138327
0.145604
0.147301
0.146913
0.146801
0.146909
0.14705
0.147086
0.144394
0.139318
0.137965
0.140058
0.141793
0.142658
0.142809
0.142795
0.143759
0.145258
0.14645
0.146926
0.145388
0.137809
0.131435
0.13413
0.139167
0.141903
0.142791
0.143156
0.14294
0.141857
0.139534
0.137964
0.139375
0.142574
0.144544
0.145185
0.145368
0.145302
0.145309
0.142985
0.140576
0.145223
0.146124
0.145606
0.145761
0.14583
0.146013
0.146203
0.146303
0.146328
0.146328
0.146329
0.146441
0.146349
0.14638
0.146429
0.146444
0.146448
0.146385
0.146357
0.146311
0.146278
0.146286
0.147641
0.150945
0.147467
0.145688
0.145948
0.146801
0.147252
0.147352
0.147007
0.146614
0.146652
0.146802
0.146815
0.146896
0.147093
0.147058
0.146331
0.145785
0.146195
0.146392
0.146
0.145937
0.146075
0.146116
0.146069
0.145831
0.145368
0.144782
0.144476
0.144542
0.144161
0.142316
0.13936
0.13988
0.142757
0.144393
0.144692
0.144424
0.142749
0.140266
0.139025
0.142792
0.147594
0.149424
0.148917
0.149965
0.15128
0.15355
0.152442
0.14882
0.147853
0.147843
0.149368
0.152736
0.153876
0.153674
0.149682
0.147293
0.14773
0.146964
0.137771
0.136064
0.145942
0.146561
0.146487
0.146443
0.146449
0.14648
0.146831
0.14669
0.14641
0.146339
0.146222
0.145985
0.145633
0.145479
0.14564
0.145857
0.146033
0.146155
0.146261
0.146375
0.146446
0.146438
0.146356
0.1465
0.146586
0.146445
0.146491
0.1466
0.146757
0.146802
0.146678
0.146531
0.146478
0.146447
0.14646
0.146432
0.146439
0.146488
0.146649
0.147018
0.147362
0.146963
0.146733
0.154262
0.151441
0.142186
0.126101
0.118288
0.123154
0.145245
0.162712
0.160015
0.156789
0.153142
0.147404
0.141492
0.139062
0.150108
0.156932
0.157092
0.153007
0.143056
0.13738
0.139742
0.144932
0.124899
0.115844
0.112225
0.124693
0.148107
0.155491
0.153602
0.150582
0.143569
0.136493
0.144349
0.153601
0.157011
0.157075
0.155232
0.154655
0.154553
0.154121
0.152718
0.150578
0.150095
0.151618
0.15309
0.153806
0.153753
0.153506
0.153834
0.154951
0.156032
0.156545
0.155187
0.1494
0.144503
0.146081
0.149151
0.150881
0.150792
0.150633
0.151046
0.151522
0.151124
0.150608
0.151897
0.154427
0.155918
0.156563
0.156676
0.157186
0.158839
0.152762
0.149512
0.161121
0.160319
0.156103
0.15607
0.156523
0.156714
0.156893
0.156954
0.156932
0.156776
0.156779
0.158245
0.156714
0.156684
0.156834
0.156882
0.156847
0.156921
0.156941
0.15699
0.156995
0.157233
0.159542
0.163221
0.158932
0.156815
0.157282
0.159225
0.160345
0.159408
0.157819
0.15652
0.156016
0.155997
0.156086
0.156339
0.156706
0.156876
0.156963
0.156941
0.157014
0.157025
0.156912
0.156811
0.156725
0.156826
0.156777
0.156679
0.156299
0.155565
0.154809
0.153795
0.152848
0.151137
0.150174
0.151717
0.154179
0.155441
0.155913
0.156127
0.156052
0.155396
0.154001
0.153677
0.154845
0.156668
0.157221
0.157044
0.159988
0.167163
0.165948
0.161569
0.163297
0.164842
0.168193
0.172075
0.166245
0.161034
0.158216
0.157316
0.157286
0.15724
0.156287
0.155522
0.156806
0.157092
0.157094
0.157096
0.157091
0.157429
0.158328
0.158128
0.157127
0.156781
0.156543
0.156236
0.15585
0.155741
0.156048
0.156446
0.156671
0.156792
0.156868
0.156928
0.156975
0.157012
0.157026
0.157149
0.15727
0.157156
0.157397
0.157525
0.157498
0.157414
0.157319
0.157248
0.1572
0.15715
0.157119
0.157119
0.15714
0.1572
0.157404
0.157789
0.157917
0.157712
0.157432
0.160664
0.157895
0.153102
0.143732
0.1357
0.152008
0.172298
0.170837
0.167259
0.16404
0.158532
0.152308
0.150243
0.154696
0.162105
0.166124
0.16502
0.157703
0.145357
0.13962
0.147108
0.169092
0.155501
0.139154
0.143424
0.15935
0.165811
0.16517
0.163827
0.160257
0.146083
0.136244
0.139585
0.148882
0.161726
0.167471
0.163981
0.162783
0.162414
0.162055
0.161958
0.161779
0.162296
0.163425
0.164222
0.164365
0.163345
0.162035
0.162439
0.164269
0.165816
0.166467
0.166398
0.165004
0.162049
0.160878
0.161426
0.160859
0.159217
0.158912
0.160185
0.161798
0.162482
0.162511
0.163321
0.165862
0.168076
0.168726
0.169591