/*--------------------------------*- C++ -*----------------------------------*\
  =========                 |
  \\      /  F ield         | OpenFOAM: The Open Source CFD Toolbox
   \\    /   O peration     | Website:  https://openfoam.org
    \\  /    A nd           | Version:  8
     \\/     M anipulation  |
\*---------------------------------------------------------------------------*/
FoamFile
{
    version     2.0;
    format      ascii;
    class       volScalarField;
    location    "900";
    object      c_0;
}
// * * * * * * * * * * * * * * * * * * * * * * * * * * * * * * * * * * * * * //

dimensions      [1 -3 0 0 0 0 0];

internalField   nonuniform List<scalar> 
20000
(
0.00489908
0.00488111
0.0048469
0.00499698
0.00524838
0.00542514
0.00547027
0.00547778
0.00546223
0.00543709
0.00540363
0.00543247
0.00601348
0.00487835
0.00292991
0.0103605
0.0234305
0.0181985
0.00830649
0.00345391
0.00480887
0.00536316
0.00544368
0.00545808
0.00546067
0.00543115
0.00535549
0.00520719
0.00509465
0.0051286
0.00515345
0.00515149
0.00517472
0.0052514
0.00537218
0.00547916
0.00552763
0.00551573
0.00544949
0.00534955
0.00528556
0.00531556
0.00544683
0.00560373
0.00570046
0.00574038
0.00568596
0.00559143
0.00544529
0.00531866
0.00525065
0.00524244
0.00534141
0.00555911
0.005906
0.00617913
0.0045312
0.00418977
0.00523635
0.00546327
0.00550265
0.00552999
0.00555895
0.00557551
0.00554905
0.00553881
0.00501366
0.00469627
0.00501738
0.00502857
0.00524634
0.00551478
0.00556415
0.0055513
0.00553249
0.00551262
0.00550098
0.00549314
0.00545914
0.00531178
0.00695931
0.014075
0.0124627
0.0145756
0.00571987
0.00464958
0.0052311
0.00536032
0.00543053
0.00546334
0.00546705
0.00544972
0.00542394
0.00545678
0.00548671
0.00549605
0.00550363
0.00554557
0.00568585
0.00553197
0.00538877
0.00544621
0.0054794
0.00549483
0.00550261
0.00549947
0.00549939
0.00549188
0.00546619
0.00548444
0.00553835
0.00558321
0.00555006
0.00553913
0.00556012
0.00556996
0.00551752
0.00541863
0.00539074
0.0054249
0.00545268
0.00546226
0.00546092
0.00545392
0.00544905
0.00545998
0.00547715
0.005488
0.00549396
0.00549788
0.00550227
0.0055034
0.00549678
0.00547791
0.00542768
0.00526779
0.00511341
0.00531461
0.00553559
0.00560578
0.00557481
0.00552581
0.00550306
0.00550821
0.00555218
0.00565083
0.00572819
0.00563941
0.00557213
0.00552214
0.00549289
0.0054567
0.00535631
0.00515639
0.005191
0.00610836
0.00668164
0.00655159
0.00601067
0.00559969
0.00546268
0.00541273
0.00541132
0.00545526
0.00547464
0.00549428
0.00549607
0.00550491
0.00550685
0.00551398
0.0055032
0.00548677
0.00548127
0.0054833
0.00549005
0.00550185
0.00549109
0.00520869
0.00540069
0.00582951
0.00572846
0.00565197
0.00531995
0.0047243
0.00535802
0.0118872
0.00513542
0.00541415
0.00551766
0.00552178
0.00553004
0.00553145
0.00551863
0.00550481
0.00549353
0.00548126
0.00548086
0.00550046
0.00552808
0.00553091
0.0157822
0.0153226
0.0148945
0.0150022
0.0155297
0.016108
0.0163296
0.0163722
0.0163163
0.0162577
0.0161472
0.0162509
0.0228315
0.0182795
0.00825214
0.0195437
0.0326714
0.0250084
0.0108334
0.0109642
0.0148602
0.0160806
0.0163449
0.0164297
0.0164827
0.0164782
0.0164138
0.0162088
0.0159819
0.0159387
0.0157959
0.0156733
0.0157413
0.0159446
0.0161963
0.0163843
0.0164556
0.0164469
0.0163652
0.0162181
0.0160178
0.0158891
0.016063
0.0164743
0.0167102
0.0167999
0.0167386
0.0166352
0.0164887
0.0163538
0.0162237
0.0162057
0.016427
0.0168865
0.0173202
0.0171336
0.0138092
0.0131631
0.0156759
0.0163659
0.0164832
0.0165342
0.0165896
0.0166334
0.0166713
0.01667
0.0159206
0.0155155
0.0157189
0.0150147
0.0149103
0.01618
0.0164981
0.0165138
0.0164994
0.0164842
0.0164763
0.0164709
0.016457
0.0162706
0.0153872
0.0194624
0.0103379
0.0195147
0.0128796
0.015254
0.0159676
0.0161365
0.0163016
0.0164223
0.0164531
0.0164071
0.0163808
0.0163922
0.0164236
0.0164486
0.0164865
0.0166422
0.0169759
0.0165675
0.0161942
0.0162963
0.0163705
0.0164147
0.0164405
0.0164645
0.0164708
0.016454
0.0164146
0.0164072
0.0166848
0.0171422
0.0167482
0.0164684
0.0164761
0.0164791
0.0163628
0.0161816
0.0161756
0.0162999
0.0163812
0.0164039
0.0163934
0.0163539
0.0163269
0.0163677
0.0164246
0.0164513
0.0164612
0.0164648
0.0164645
0.0164543
0.0164047
0.0162489
0.0160303
0.0158952
0.0158718
0.0162214
0.0165335
0.0166131
0.0165093
0.0163901
0.0163437
0.016353
0.0164387
0.0168497
0.0172592
0.0171031
0.0168155
0.0165892
0.0164403
0.0162923
0.0160487
0.0157436
0.0160028
0.0179007
0.0187341
0.0181168
0.0171407
0.0166313
0.0165846
0.0164364
0.0164379
0.0163606
0.0164342
0.0164341
0.0164732
0.0164768
0.0164984
0.0164924
0.0164655
0.0164334
0.0164237
0.0164352
0.0164584
0.0164866
0.0164026
0.0157381
0.0161387
0.0172293
0.0173021
0.0171029
0.0154738
0.0146752
0.0128214
0.0201616
0.0143485
0.0164186
0.0165078
0.0165072
0.0165141
0.0165149
0.0164996
0.0164847
0.0164735
0.0164638
0.0164736
0.0165133
0.0165332
0.0165585
0.0262384
0.0253302
0.0249206
0.0247238
0.0255974
0.025785
0.0261759
0.0265376
0.0268875
0.0268916
0.0265139
0.0274483
0.0442824
0.0378295
0.0204627
0.0236486
0.0325719
0.0298468
0.0178728
0.0208351
0.025067
0.0267699
0.02721
0.027353
0.027434
0.0274705
0.0274511
0.0273442
0.0272079
0.0270347
0.0267853
0.0265672
0.0266422
0.026908
0.0271448
0.0272313
0.0272454
0.027261
0.0273003
0.027317
0.0271787
0.0267426
0.0265529
0.0268785
0.0272716
0.0274895
0.0275197
0.0274964
0.0274421
0.0274193
0.0273664
0.0274418
0.0276851
0.0280775
0.0283217
0.0278543
0.0244757
0.0234177
0.0259752
0.0271044
0.0273293
0.0274165
0.0274581
0.0274722
0.0274416
0.0274307
0.0273965
0.0273589
0.0271792
0.0255762
0.0247231
0.026338
0.0270013
0.0272556
0.0273587
0.0273995
0.0274152
0.0274265
0.0274428
0.0275033
0.0279551
0.0287956
0.0119876
0.0296611
0.0268164
0.0269304
0.0269837
0.0270286
0.0271678
0.0273284
0.0274144
0.0274173
0.0273914
0.0273846
0.0273845
0.0273865
0.0274587
0.0277144
0.0280419
0.0275147
0.0270632
0.027065
0.0271656
0.0272852
0.0273696
0.0274012
0.0274037
0.0273909
0.0273399
0.0272417
0.0277411
0.0309385
0.028424
0.0268195
0.0270507
0.0272025
0.0271406
0.0269587
0.0269564
0.0271576
0.0273141
0.0273613
0.0273387
0.0272452
0.0271331
0.0272538
0.0273643
0.0274022
0.0274068
0.0274034
0.0273917
0.0273549
0.0272123
0.0268111
0.0265157
0.0267124
0.0270638
0.0273371
0.0274856
0.0274694
0.0273044
0.0271851
0.0271551
0.0271347
0.0271369
0.0275432
0.0281878
0.0282346
0.0279812
0.0275736
0.0272153
0.0270833
0.0270653
0.0271505
0.0279856
0.0298572
0.0301264
0.029169
0.0282273
0.0278437
0.0277395
0.0276652
0.0275445
0.0274531
0.0273966
0.0274041
0.0273961
0.0274208
0.0274196
0.0274029
0.0273689
0.0273395
0.0273546
0.0273945
0.0274246
0.0274435
0.0272174
0.0264607
0.026886
0.0280443
0.028404
0.0279982
0.0257561
0.0258397
0.0267822
0.0297034
0.0275712
0.0275111
0.0274588
0.0274413
0.0274345
0.0274309
0.0274291
0.0274292
0.0274316
0.0274415
0.0274673
0.0274981
0.0275313
0.0275246
0.0352685
0.0343721
0.0339986
0.0351225
0.0353225
0.0349144
0.0339775
0.0351715
0.0367596
0.0363854
0.0349164
0.0407388
0.048739
0.0254641
0.0190565
0.0213364
0.0308766
0.0394088
0.030777
0.0310659
0.0349591
0.0374312
0.0380982
0.0383058
0.0384363
0.0385094
0.0384481
0.0383149
0.038197
0.0380839
0.037866
0.0376099
0.037677
0.0379631
0.0381167
0.0381182
0.0380613
0.0380527
0.0381735
0.0384712
0.0387165
0.038121
0.0368785
0.0366526
0.0372415
0.0378582
0.0381819
0.0383188
0.0383827
0.0384291
0.0385613
0.038479
0.0384413
0.0385657
0.0388186
0.038458
0.0364523
0.0347561
0.0364333
0.0373493
0.0377581
0.0379654
0.0380916
0.0381551
0.0381144
0.0381733
0.038289
0.0383169
0.0381113
0.0367228
0.0356122
0.0367656
0.0375114
0.0378253
0.0380737
0.0382301
0.0383007
0.0383355
0.038365
0.0384395
0.0388221
0.039107
0.028057
0.0391175
0.0382739
0.0380888
0.0380578
0.0380348
0.0380577
0.0381741
0.0382809
0.038345
0.0383601
0.0383578
0.0383519
0.0383639
0.0384434
0.0386954
0.0388715
0.038422
0.0380048
0.0378819
0.0379709
0.0381585
0.0382836
0.0383215
0.0383273
0.0383082
0.0382147
0.0379227
0.0390817
0.0551235
0.0480571
0.0365199
0.0369679
0.0379259
0.0381023
0.0380125
0.0376907
0.0376689
0.0379968
0.0382122
0.0382252
0.0379861
0.0377233
0.0380643
0.0383021
0.0383474
0.0383441
0.0383349
0.0383146
0.038257
0.0380232
0.037398
0.0372128
0.0374995
0.0379054
0.0381478
0.0382918
0.0383891
0.0383475
0.0382419
0.0381611
0.0380423
0.0379404
0.0381409
0.0385726
0.0387497
0.0387616
0.0384859
0.0381475
0.0380844
0.0382428
0.0384927
0.039347
0.04118
0.0413682
0.0407861
0.0393786
0.0388751
0.0386969
0.0385615
0.0384073
0.0383496
0.0382908
0.0382924
0.0382829
0.038305
0.0383078
0.038295
0.0382676
0.0382622
0.038293
0.0383411
0.0383978
0.038393
0.0379026
0.037336
0.0378989
0.0385563
0.0387726
0.0384997
0.0373568
0.0375232
0.0384339
0.0397819
0.0388433
0.0384835
0.0383847
0.0383607
0.0383531
0.0383504
0.0383512
0.038354
0.0383593
0.0383722
0.0384015
0.0384642
0.0384659
0.0384684
0.046362
0.046
0.0461729
0.0465062
0.0458284
0.0444263
0.0405728
0.036118
0.0336986
0.0383941
0.0463039
0.0522164
0.0534816
0.0316048
0.0329261
0.0451437
0.049734
0.0486159
0.0435548
0.0399763
0.0432644
0.0481991
0.0496833
0.0498993
0.0500729
0.0500179
0.0496836
0.0493259
0.0491438
0.049021
0.0487721
0.0485052
0.0485999
0.0489296
0.0490646
0.0490486
0.0489364
0.048811
0.0488806
0.0503371
0.0518752
0.0499511
0.0467026
0.0462276
0.0469219
0.0477847
0.0485926
0.0490991
0.0495221
0.0496684
0.0492705
0.0485689
0.0482687
0.0486886
0.0491055
0.0492819
0.0482698
0.0473028
0.0478282
0.0481546
0.0483439
0.0484964
0.0486011
0.0482102
0.0473007
0.0474595
0.0481258
0.0481377
0.0475728
0.047107
0.0471549
0.0478557
0.0481974
0.0483674
0.0486322
0.0489034
0.0490842
0.0491701
0.0492272
0.0492946
0.0494741
0.049702
0.0477385
0.0495193
0.0491504
0.0491015
0.049084
0.0490467
0.0489698
0.0489615
0.0490744
0.0491999
0.0492532
0.0492668
0.0492736
0.0492969
0.0494075
0.0496625
0.0497305
0.049395
0.0490018
0.048794
0.048777
0.049017
0.0491724
0.0492233
0.0492286
0.0491959
0.0489619
0.0480125
0.0522219
0.0805877
0.0778245
0.0561544
0.0459385
0.0480452
0.0488964
0.0489353
0.0484506
0.0480314
0.0483213
0.0486299
0.0487274
0.0482388
0.047888
0.0487097
0.0492121
0.0492637
0.0492628
0.0492463
0.0492262
0.0491479
0.0487852
0.0478754
0.048242
0.0481901
0.0485468
0.048824
0.0491029
0.0494317
0.0495253
0.0493848
0.0491766
0.049001
0.048928
0.049057
0.0492271
0.049324
0.049379
0.0493375
0.0492685
0.0492887
0.0493256
0.0493982
0.0499764
0.0518642
0.0523873
0.056738
0.0505856
0.049624
0.0494151
0.0492747
0.0492073
0.049207
0.0492014
0.0491957
0.0491902
0.0491991
0.0492005
0.0491927
0.0491791
0.0491801
0.0492289
0.0493131
0.0494138
0.0492792
0.0485811
0.0483371
0.0489151
0.0491918
0.0492372
0.0491917
0.0490358
0.0489828
0.0492088
0.0499685
0.0501553
0.0496032
0.0492995
0.0492615
0.0492568
0.0492571
0.049258
0.0492591
0.0492622
0.0492698
0.04929
0.0494034
0.0494165
0.0493289
0.0579275
0.0588026
0.0590346
0.0586207
0.0577567
0.0546099
0.045578
0.0373605
0.0346849
0.0361508
0.0393963
0.0479073
0.0662937
0.0564722
0.0575954
0.059629
0.059681
0.0586962
0.0546904
0.0472009
0.0488541
0.0583191
0.0625396
0.0620012
0.0615276
0.0610244
0.0605525
0.0602267
0.0600178
0.0597574
0.0595501
0.0590967
0.0592721
0.0597221
0.0599188
0.0599155
0.0597309
0.0592119
0.0594252
0.069239
0.0705872
0.0636606
0.0548496
0.0556865
0.0566983
0.0570991
0.057708
0.0591856
0.060103
0.0603321
0.0601884
0.0597458
0.0594969
0.0597433
0.0598859
0.0599747
0.0598261
0.0595721
0.0595381
0.0595965
0.059605
0.059572
0.0592504
0.0575733
0.0553634
0.0556462
0.057419
0.0579792
0.0580252
0.058298
0.0587421
0.0591046
0.0592006
0.0591708
0.0592291
0.0594899
0.0598033
0.0599669
0.0600803
0.0601529
0.0602503
0.0602758
0.0599991
0.0600794
0.0600281
0.060037
0.0601001
0.060055
0.0599105
0.0597652
0.0597968
0.0599948
0.0601265
0.060155
0.0601726
0.0602101
0.0603647
0.0606683
0.0607155
0.0604245
0.0601325
0.0598343
0.0597452
0.0598378
0.0600241
0.0601033
0.0601225
0.0599422
0.0586633
0.0622326
0.0809452
0.087633
0.0849717
0.059275
0.0545528
0.0587068
0.0597157
0.0598747
0.0595591
0.0591118
0.0590655
0.0591803
0.0588817
0.0580115
0.0574712
0.058947
0.0600209
0.0601793
0.0601342
0.0601334
0.060125
0.0600834
0.0591039
0.0578914
0.06175
0.0589585
0.0592692
0.0597155
0.0600964
0.0604444
0.0606084
0.0604433
0.0601693
0.0599832
0.0599844
0.0600794
0.0601304
0.0601498
0.0601617
0.0601709
0.0601768
0.0601799
0.0601466
0.0599598
0.0601212
0.0641003
0.0663465
0.0901233
0.0643361
0.0597512
0.0599515
0.0600161
0.060049
0.0600711
0.0600845
0.0600839
0.0600875
0.0600892
0.060088
0.0600787
0.0600709
0.0600946
0.0601354
0.0601773
0.060194
0.0600759
0.0595444
0.059398
0.0597379
0.0599537
0.0600348
0.0600503
0.060039
0.0600361
0.0600798
0.0603586
0.0611371
0.0607931
0.0602193
0.0601416
0.060138
0.0601379
0.0601376
0.0601365
0.0601285
0.0601087
0.06
0.0608821
0.0603681
0.0600908
0.0684751
0.0700194
0.0702626
0.0699419
0.0692045
0.0676
0.0652616
0.0625936
0.0614729
0.0580707
0.0504991
0.0535197
0.0699993
0.073051
0.0709301
0.0704027
0.069843
0.0690151
0.0656163
0.056157
0.0542092
0.0620826
0.0710465
0.0713006
0.0710571
0.0710086
0.0709701
0.0709294
0.0709264
0.071064
0.07082
0.0699241
0.0697744
0.0701606
0.0704579
0.0705085
0.0701773
0.0692423
0.0725716
0.0905715
0.08575
0.0769572
0.0612942
0.0644938
0.0669053
0.0657251
0.0646398
0.0677037
0.0704185
0.0709109
0.0709194
0.0708582
0.0708238
0.0708111
0.0707984
0.0707586
0.070704
0.0706961
0.0707377
0.0707783
0.0707381
0.070618
0.0701737
0.0684136
0.0659639
0.0668106
0.0689856
0.0694922
0.0692537
0.0693311
0.0697139
0.070119
0.0702118
0.0701288
0.0700504
0.0702396
0.070379
0.0707022
0.0708611
0.0709891
0.071008
0.0709474
0.0707007
0.0707565
0.0708425
0.0709527
0.0710552
0.0711192
0.0710603
0.070834
0.0706391
0.0707502
0.0709848
0.0710869
0.0710862
0.0711399
0.0713461
0.0717267
0.0715903
0.0713646
0.0711851
0.0710464
0.0709325
0.0709673
0.0710208
0.0710519
0.0710127
0.0704832
0.0685165
0.0760271
0.0918644
0.0907472
0.0871105
0.0607655
0.0662823
0.0700097
0.0707099
0.0708718
0.0708575
0.0707026
0.0704923
0.070238
0.0698165
0.0685077
0.0662886
0.0677443
0.070508
0.0711092
0.0709618
0.0709139
0.0710398
0.0713529
0.0692636
0.0733429
0.0802886
0.0705596
0.0705385
0.0709097
0.071159
0.0714365
0.0716666
0.0715112
0.0711097
0.0709345
0.0709549
0.0709882
0.0710042
0.0710075
0.0710064
0.0709998
0.0709859
0.0709383
0.0707458
0.0699319
0.0717854
0.0866476
0.0825462
0.11085
0.0783376
0.069502
0.070523
0.070808
0.0708867
0.0709308
0.0710018
0.071038
0.0710378
0.0710009
0.0709738
0.0709245
0.07091
0.0709172
0.0709379
0.0709567
0.0709549
0.0709013
0.0706712
0.0704151
0.0705037
0.0707154
0.0708422
0.070898
0.0709145
0.0709258
0.0709448
0.0710777
0.0717344
0.071875
0.0711823
0.0709784
0.0709944
0.0709934
0.07099
0.0709676
0.0708822
0.0706953
0.070435
0.0747941
0.0720172
0.0704611
0.0749055
0.079652
0.0799487
0.079573
0.0787306
0.078718
0.0790647
0.0798336
0.0802226
0.0789796
0.0730313
0.0686932
0.0773532
0.0814682
0.081256
0.0811013
0.0806966
0.0799123
0.0763719
0.0682348
0.0674295
0.0770191
0.080878
0.08131
0.0814505
0.0816076
0.0817263
0.0818354
0.0819846
0.0822718
0.0823863
0.08157
0.0810438
0.081114
0.0811915
0.0811964
0.0809526
0.0795165
0.0782949
0.095265
0.0800157
0.069426
0.0665339
0.0765452
0.0808148
0.0784935
0.0716443
0.0736456
0.0794785
0.0812318
0.0815501
0.0816151
0.0816477
0.081654
0.0816436
0.0816121
0.0815952
0.0816013
0.0816414
0.0816694
0.0816218
0.081341
0.0805919
0.0796308
0.0791155
0.0798657
0.0805339
0.080537
0.0802583
0.0801013
0.0803805
0.0808181
0.0810767
0.0810664
0.0811508
0.0810297
0.0808551
0.0803838
0.0809588
0.0811574
0.0813005
0.0811621
0.0811749
0.0815065
0.0817138
0.0818342
0.0819682
0.0820629
0.0821302
0.0820084
0.0817444
0.0815763
0.0817807
0.0819268
0.0819709
0.0819584
0.0820997
0.0824443
0.0823434
0.0821429
0.0820561
0.0820527
0.0820712
0.0820279
0.0819244
0.0818644
0.0818266
0.0817151
0.0801489
0.0721812
0.0953141
0.0907814
0.0750686
0.0671423
0.0823571
0.081616
0.0817358
0.0817942
0.0818112
0.0817931
0.0817564
0.0816533
0.0814085
0.0802181
0.0772507
0.0758332
0.0787443
0.0814902
0.0817996
0.0817459
0.0819902
0.0826483
0.0781116
0.0745392
0.085992
0.0823382
0.0822721
0.0823516
0.0823
0.0824702
0.0829054
0.0826309
0.0819962
0.0818266
0.0818215
0.0818353
0.0818464
0.0818599
0.081876
0.0818581
0.0817916
0.0816188
0.0812478
0.0800411
0.077053
0.106798
0.0892248
0.112701
0.0834019
0.0794374
0.0812424
0.0816267
0.0817073
0.0817495
0.0817824
0.0818113
0.0818006
0.0817865
0.0817531
0.081712
0.081709
0.0817371
0.0817797
0.081798
0.0817911
0.0817351
0.0815591
0.0812975
0.0812714
0.0814692
0.0816379
0.0817217
0.081755
0.081764
0.0817657
0.0817977
0.0821193
0.0828109
0.0825655
0.0815664
0.0818273
0.0818417
0.0818179
0.0817511
0.0815096
0.0811448
0.0800737
0.0857086
0.0845164
0.0805057
0.081252
0.0893203
0.0903707
0.0904217
0.0895522
0.0890906
0.0886986
0.0902616
0.0903148
0.0893688
0.0862901
0.0807474
0.0832311
0.0883675
0.0914095
0.0920437
0.092477
0.0912941
0.0881904
0.0794214
0.0814094
0.0887778
0.0916667
0.0922835
0.0921498
0.0921179
0.0923021
0.0925221
0.0928075
0.0932729
0.0931963
0.0923977
0.0921404
0.0922428
0.0923087
0.0922905
0.091983
0.090634
0.0885855
0.0986597
0.0734045
0.0697927
0.0813824
0.0928417
0.0946313
0.0930133
0.0818298
0.0782206
0.0828526
0.0885575
0.0910258
0.0919223
0.0922392
0.0923719
0.0924065
0.0924154
0.0924208
0.0924538
0.0925886
0.0925738
0.0922317
0.0912486
0.0905364
0.090331
0.0907574
0.0913578
0.0916578
0.0916288
0.091337
0.0910529
0.0912768
0.0914899
0.0916217
0.09166
0.0915721
0.091316
0.0908651
0.0908253
0.0914426
0.0918446
0.0919347
0.0914893
0.0911632
0.091958
0.0923203
0.0926598
0.0928309
0.0929678
0.0930583
0.0930796
0.0927254
0.0922947
0.092317
0.0925916
0.0927185
0.0927645
0.0929605
0.0933675
0.0934511
0.0930905
0.0929172
0.0929402
0.092948
0.0928298
0.0926488
0.0925471
0.092537
0.0925614
0.0923671
0.0823007
0.104651
0.0783734
0.0774633
0.0866369
0.0965345
0.0932474
0.092739
0.0926594
0.0926265
0.0926188
0.0926115
0.0926022
0.0926001
0.0924879
0.0905651
0.0860656
0.0868749
0.0909459
0.0923665
0.092511
0.0926157
0.0930042
0.0880155
0.0804674
0.092106
0.0932806
0.093097
0.0930696
0.0929245
0.0939258
0.0958703
0.0953027
0.0928534
0.0926233
0.0925709
0.092567
0.0926298
0.0929183
0.0933877
0.0933371
0.092837
0.0922651
0.0918607
0.091027
0.0875476
0.11533
0.0951348
0.110903
0.0972679
0.089366
0.0920031
0.0924275
0.0925211
0.0925374
0.0925406
0.0925627
0.0925803
0.0925898
0.0925742
0.0925646
0.0925558
0.0926035
0.0926261
0.0926354
0.0926102
0.0924862
0.0922232
0.0919366
0.0920064
0.0922709
0.0924577
0.0925417
0.0925782
0.0925902
0.0925897
0.0925917
0.0927068
0.0934317
0.0940276
0.091885
0.0926829
0.0927368
0.092739
0.0926614
0.0923483
0.0920522
0.0920524
0.0955982
0.0957191
0.0904418
0.0916461
0.100868
0.102186
0.101931
0.100926
0.0989456
0.0979472
0.0993786
0.100003
0.0997563
0.0979178
0.0929918
0.0876144
0.0911303
0.0995693
0.10646
0.110675
0.110253
0.104099
0.0919294
0.0889238
0.0938411
0.101299
0.104214
0.101697
0.101242
0.102773
0.105596
0.105128
0.103807
0.102812
0.102489
0.10288
0.10322
0.103322
0.103276
0.103052
0.102132
0.102043
0.113283
0.0828934
0.0763011
0.0961827
0.103371
0.105222
0.103379
0.0901267
0.0825233
0.0867409
0.0937844
0.0981222
0.100551
0.102082
0.102779
0.102953
0.102961
0.102877
0.102958
0.103032
0.103072
0.102764
0.101989
0.101332
0.101167
0.101638
0.102207
0.102516
0.102526
0.102303
0.102043
0.101884
0.101913
0.101705
0.101484
0.101853
0.102224
0.102266
0.102209
0.102644
0.103401
0.103542
0.102411
0.101332
0.100685
0.100908
0.102452
0.103841
0.103825
0.103796
0.103846
0.103668
0.1032
0.103001
0.103203
0.103491
0.103671
0.103859
0.104189
0.104391
0.103997
0.103505
0.10349
0.103546
0.103521
0.103424
0.103358
0.10334
0.103419
0.103937
0.106417
0.114992
0.0817462
0.079132
0.0987499
0.106413
0.104242
0.103581
0.103471
0.103372
0.103304
0.103302
0.103332
0.103337
0.103257
0.102608
0.0985729
0.0958114
0.100133
0.102797
0.103287
0.103379
0.103223
0.100865
0.0981816
0.102637
0.103058
0.103101
0.102803
0.102369
0.105431
0.111956
0.113173
0.104281
0.103399
0.103342
0.103324
0.103398
0.103739
0.10444
0.105024
0.105236
0.102986
0.102593
0.10212
0.105224
0.122736
0.101975
0.108938
0.0990025
0.101547
0.103073
0.103298
0.103341
0.103329
0.103318
0.103339
0.103364
0.103373
0.103379
0.103389
0.103472
0.103549
0.103608
0.103584
0.103316
0.102928
0.102722
0.102747
0.102959
0.103168
0.103291
0.103358
0.103394
0.103414
0.103428
0.103442
0.103476
0.103826
0.104383
0.102741
0.103411
0.103472
0.103491
0.103495
0.103305
0.102998
0.103475
0.108058
0.105661
0.101509
0.105428
0.111176
0.112492
0.112079
0.111086
0.108413
0.108025
0.110556
0.112816
0.113104
0.112726
0.108757
0.0950622
0.0939306
0.110714
0.124377
0.13138
0.127566
0.117997
0.106308
0.0992376
0.0985515
0.100993
0.106176
0.107277
0.11087
0.12206
0.126637
0.122172
0.115468
0.111482
0.111798
0.113156
0.11386
0.114074
0.114194
0.114215
0.113729
0.114812
0.123048
0.10865
0.0963234
0.108708
0.11257
0.114135
0.112001
0.0990429
0.0903724
0.0953
0.102633
0.106793
0.109064
0.110642
0.11117
0.111224
0.11087
0.110959
0.111942
0.113011
0.113609
0.113533
0.113214
0.112506
0.112066
0.112154
0.11257
0.112639
0.112394
0.112094
0.112216
0.112568
0.112771
0.11263
0.112453
0.112731
0.113174
0.113331
0.113122
0.113403
0.114178
0.114349
0.114033
0.113677
0.112703
0.11136
0.11265
0.114103
0.114346
0.114489
0.114622
0.114456
0.114072
0.113771
0.113921
0.114202
0.114466
0.114674
0.114906
0.115042
0.11441
0.113973
0.114074
0.114206
0.114243
0.114265
0.114281
0.114364
0.114577
0.115595
0.120481
0.123282
0.0964615
0.0847991
0.110648
0.116379
0.114754
0.114144
0.114105
0.11403
0.113954
0.113943
0.113984
0.113987
0.11385
0.113177
0.110154
0.105906
0.109398
0.112933
0.113839
0.114033
0.113675
0.112595
0.111301
0.112359
0.112781
0.11308
0.112658
0.111727
0.113902
0.125673
0.127383
0.113878
0.113907
0.114122
0.11417
0.114199
0.114255
0.114491
0.115848
0.120377
0.115746
0.113375
0.112963
0.130367
0.124919
0.109892
0.109451
0.102792
0.115067
0.114395
0.114208
0.114112
0.113983
0.113936
0.113963
0.114047
0.114088
0.11413
0.114179
0.114274
0.114377
0.114449
0.114424
0.113987
0.11359
0.113633
0.11383
0.113943
0.114016
0.114085
0.114148
0.114181
0.114198
0.114209
0.114227
0.11429
0.11443
0.114482
0.114116
0.114199
0.114207
0.11421
0.114222
0.114183
0.11393
0.11442
0.121088
0.115776
0.112425
0.119017
0.121661
0.12157
0.120425
0.118948
0.116493
0.117656
0.124203
0.126053
0.126237
0.125506
0.121379
0.106319
0.0950312
0.102537
0.115547
0.136166
0.134347
0.126792
0.122069
0.11808
0.110872
0.120145
0.118196
0.113065
0.119529
0.128964
0.134803
0.132172
0.123694
0.118987
0.119934
0.122658
0.124365
0.124899
0.125132
0.125387
0.125574
0.126649
0.131039
0.125957
0.116866
0.119219
0.121798
0.123444
0.123443
0.117059
0.108404
0.111885
0.116643
0.119345
0.120967
0.121739
0.119709
0.116703
0.116352
0.118325
0.12076
0.122546
0.12346
0.123856
0.123466
0.122563
0.121463
0.121234
0.121505
0.121747
0.121856
0.12228
0.12278
0.123225
0.123557
0.123513
0.123292
0.123371
0.12385
0.124066
0.123923
0.123848
0.124494
0.124854
0.12489
0.124887
0.124854
0.124192
0.124086
0.124972
0.125207
0.125151
0.125147
0.125168
0.124927
0.124741
0.124647
0.124899
0.125389
0.125892
0.125669
0.125121
0.124713
0.124722
0.124877
0.125001
0.125081
0.125219
0.125578
0.126084
0.126352
0.126781
0.129375
0.128451
0.11437
0.103623
0.122204
0.126363
0.124954
0.124514
0.124692
0.124686
0.12462
0.124557
0.1245
0.12437
0.123971
0.123059
0.120896
0.117602
0.119097
0.122215
0.124091
0.124454
0.124385
0.123478
0.122104
0.12104
0.121398
0.124028
0.124836
0.123799
0.124731
0.136234
0.135876
0.124633
0.125232
0.125104
0.12502
0.125015
0.125082
0.125327
0.126582
0.13473
0.131371
0.127223
0.12795
0.129772
0.113383
0.109297
0.121247
0.123729
0.126703
0.12588
0.125222
0.124066
0.123748
0.124209
0.124589
0.124743
0.124809
0.124813
0.124779
0.124748
0.124784
0.12489
0.124929
0.124728
0.124552
0.124683
0.124776
0.124795
0.124782
0.124855
0.124914
0.124939
0.124951
0.124968
0.125025
0.125111
0.125164
0.125102
0.124979
0.124967
0.124964
0.124965
0.124977
0.124981
0.124855
0.124812
0.129115
0.124674
0.123962
0.132988
0.132457
0.129672
0.125452
0.118552
0.12125
0.134064
0.142343
0.142708
0.140418
0.136693
0.128546
0.112803
0.0996367
0.104864
0.120225
0.139323
0.138512
0.134197
0.133236
0.133247
0.132556
0.137376
0.124111
0.11201
0.113216
0.118221
0.136237
0.137935
0.131648
0.126922
0.127284
0.130957
0.134645
0.135778
0.136013
0.136152
0.136527
0.137578
0.139398
0.136011
0.128988
0.128009
0.130725
0.132508
0.132741
0.131282
0.12869
0.12992
0.132013
0.133581
0.134838
0.134966
0.129927
0.123114
0.124767
0.128964
0.131452
0.132767
0.133481
0.133554
0.132512
0.129979
0.128275
0.12877
0.130941
0.132696
0.133484
0.133769
0.13375
0.133692
0.133503
0.133098
0.133604
0.134218
0.134646
0.134885
0.134876
0.134975
0.135391
0.135577
0.135613
0.135634
0.135658
0.135604
0.135571
0.135692
0.135705
0.13572
0.135773
0.135767
0.135692
0.135523
0.135386
0.135478
0.136367
0.137423
0.135906
0.135164
0.135238
0.135483
0.135742
0.13581
0.135968
0.136227
0.136586
0.136799
0.136835
0.136839
0.13746
0.137711
0.134087
0.130073
0.134798
0.136163
0.135246
0.135162
0.135346
0.135385
0.135311
0.135086
0.134768
0.134454
0.13416
0.133852
0.132973
0.130641
0.129341
0.131015
0.133337
0.134192
0.134314
0.133498
0.131408
0.129187
0.129151
0.13526
0.138517
0.138429
0.137913
0.14353
0.142852
0.139005
0.138266
0.136448
0.135978
0.13595
0.136397
0.137778
0.14001
0.145095
0.141849
0.137808
0.13896
0.125397
0.113983
0.111432
0.129717
0.136828
0.136654
0.136308
0.135733
0.134971
0.135204
0.135547
0.135587
0.135589
0.135578
0.135476
0.135326
0.135207
0.135206
0.135283
0.135386
0.135458
0.135532
0.135659
0.135724
0.135686
0.135606
0.135655
0.135697
0.135679
0.135699
0.135788
0.135973
0.13607
0.135983
0.135836
0.135741
0.135722
0.1357
0.135704
0.135707
0.135745
0.135852
0.136135
0.137123
0.136064
0.135773
0.143959
0.142104
0.136352
0.122834
0.116359
0.122878
0.141089
0.15439
0.153891
0.150417
0.14561
0.138614
0.1273
0.11713
0.128512
0.145468
0.148484
0.145076
0.140844
0.139895
0.139327
0.139761
0.133202
0.114944
0.108559
0.112787
0.130163
0.146937
0.145151
0.140212
0.135169
0.133667
0.138106
0.145238
0.147111
0.146852
0.146809
0.146934
0.147067
0.14708
0.144545
0.139582
0.138111
0.140056
0.141757
0.142653
0.14286
0.142905
0.143836
0.14527
0.146398
0.146801
0.145261
0.137985
0.131624
0.134167
0.139088
0.141828
0.142756
0.143169
0.143005
0.141999
0.139749
0.138146
0.139454
0.142555
0.144498
0.145131
0.145305
0.145225
0.145202
0.143031
0.140585
0.145057
0.1461
0.145657
0.145801
0.145865
0.146033
0.14621
0.146302
0.146326
0.146325
0.146319
0.146415
0.146335
0.146373
0.146424
0.146444
0.146459
0.146403
0.146365
0.146308
0.146261
0.146246
0.147495
0.150591
0.147374
0.145662
0.145903
0.146738
0.147206
0.147335
0.147027
0.146647
0.14668
0.146816
0.146816
0.146886
0.14707
0.147047
0.146375
0.145866
0.14621
0.146373
0.14598
0.145916
0.146059
0.146107
0.146063
0.145831
0.145376
0.144804
0.144515
0.144588
0.144226
0.142455
0.139597
0.140064
0.142834
0.144442
0.144747
0.144505
0.142917
0.140524
0.13934
0.142952
0.147542
0.149363
0.14891
0.149851
0.150992
0.153099
0.152184
0.148762
0.147814
0.147804
0.14924
0.152395
0.153591
0.153412
0.149562
0.14727
0.147663
0.147099
0.138352
0.136556
0.146002
0.146558
0.146485
0.146442
0.146449
0.146484
0.146827
0.146689
0.146415
0.146343
0.146227
0.145996
0.145655
0.145508
0.145666
0.145876
0.146047
0.146164
0.146266
0.146375
0.146442
0.146432
0.146356
0.146493
0.146582
0.146449
0.146495
0.146605
0.146761
0.146803
0.146679
0.146532
0.146479
0.146448
0.14646
0.146432
0.146438
0.146485
0.146642
0.146999
0.147332
0.146947
0.146725
0.154292
0.151514
0.142453
0.126635
0.118708
0.123346
0.145731
0.162597
0.159882
0.156748
0.153203
0.147629
0.142058
0.140122
0.150396
0.156851
0.156987
0.15304
0.143457
0.137858
0.139888
0.144542
0.125696
0.116377
0.112608
0.12564
0.148749
0.155567
0.153705
0.150652
0.143766
0.136493
0.143681
0.152853
0.156518
0.156748
0.155141
0.154551
0.154386
0.153977
0.152702
0.150679
0.150197
0.151657
0.153102
0.153823
0.153791
0.153564
0.153878
0.154964
0.15602
0.156507
0.15518
0.149558
0.144657
0.146074
0.149009
0.150774
0.150775
0.150701
0.151153
0.151654
0.151278
0.150737
0.15192
0.154341
0.1558
0.15644
0.156554
0.157005
0.158591
0.152914
0.149154
0.160373
0.160026
0.156175
0.156134
0.156553
0.156731
0.156898
0.156956
0.156935
0.156787
0.156782
0.158131
0.156733
0.156706
0.156859
0.15692
0.156893
0.156951
0.156951
0.156987
0.156984
0.157198
0.159361
0.162832
0.158829
0.156801
0.157255
0.159159
0.160311
0.159455
0.157901
0.156573
0.156031
0.156012
0.156104
0.15635
0.156712
0.1569
0.156991
0.15696
0.157019
0.157021
0.156903
0.156795
0.15671
0.156816
0.156773
0.156678
0.1563
0.155578
0.154851
0.15388
0.152967
0.151343
0.150433
0.151897
0.154259
0.155486
0.155948
0.156158
0.15609
0.155469
0.154149
0.153809
0.154933
0.156707
0.157278
0.157079
0.15961
0.166511
0.165647
0.161514
0.163101
0.164407
0.167345
0.170977
0.165708
0.160879
0.158181
0.157313
0.15728
0.157251
0.156381
0.155651
0.156839
0.157099
0.157096
0.157097
0.157093
0.157427
0.1583
0.158107
0.15713
0.156788
0.156553
0.156254
0.155879
0.155776
0.156077
0.156465
0.156684
0.156802
0.156875
0.156934
0.156978
0.157014
0.157026
0.157146
0.157265
0.15716
0.1574
0.157526
0.157497
0.157412
0.157319
0.157249
0.157202
0.157151
0.157119
0.157118
0.157139
0.157197
0.157395
0.157769
0.157891
0.157696
0.157422
0.160783
0.158065
0.153418
0.144715
0.137101
0.152957
0.172197
0.170654
0.167195
0.164075
0.158732
0.152652
0.150648
0.155102
0.162223
0.166078
0.165005
0.157952
0.145941
0.140124
0.146863
0.168541
0.157619
0.140271
0.144123
0.159786
0.16594
0.165341
0.164032
0.160497
0.146412
0.136406
0.139193
0.148275
0.161071
0.166818
0.16354
0.162396
0.162062
0.161788
0.161832
0.161781
0.16235
0.163475
0.16426
0.164406
0.163402
0.162065
0.162452
0.164275
0.16582
0.166469
0.166398
0.165036
0.162145
0.160933
0.161382
0.160816
0.159251
0.159006
0.160268
0.161878
0.162554
0.162568
0.163307
0.165721
0.167868
0.168486
0.169226