/*--------------------------------*- C++ -*----------------------------------*\
  =========                 |
  \\      /  F ield         | OpenFOAM: The Open Source CFD Toolbox
   \\    /   O peration     | Website:  https://openfoam.org
    \\  /    A nd           | Version:  8
     \\/     M anipulation  |
\*---------------------------------------------------------------------------*/
FoamFile
{
    version     2.0;
    format      ascii;
    class       volSymmTensorField;
    location    "900";
    object      K;
}
// * * * * * * * * * * * * * * * * * * * * * * * * * * * * * * * * * * * * * //

dimensions      [0 2 0 0 0 0 0];

internalField   nonuniform List<symmTensor> 
20000
(
(6.72812e-09 0 0 6.72812e-09 0 6.72812e-09)
(4.52648e-09 0 0 4.52648e-09 0 4.52648e-09)
(2.50253e-09 0 0 2.50253e-09 0 2.50253e-09)
(1.21866e-09 0 0 1.21866e-09 0 1.21866e-09)
(5.45873e-10 0 0 5.45873e-10 0 5.45873e-10)
(2.33164e-10 0 0 2.33164e-10 0 2.33164e-10)
(1.05465e-10 0 0 1.05465e-10 0 1.05465e-10)
(6.23821e-11 0 0 6.23821e-11 0 6.23821e-11)
(6.02586e-11 0 0 6.02586e-11 0 6.02586e-11)
(1.00242e-10 0 0 1.00242e-10 0 1.00242e-10)
(2.33798e-10 0 0 2.33798e-10 0 2.33798e-10)
(5.44412e-10 0 0 5.44412e-10 0 5.44412e-10)
(1.01571e-09 0 0 1.01571e-09 0 1.01571e-09)
(1.594e-09 0 0 1.594e-09 0 1.594e-09)
(2.6115e-09 0 0 2.6115e-09 0 2.6115e-09)
(5.08406e-09 0 0 5.08406e-09 0 5.08406e-09)
(1.0441e-08 0 0 1.0441e-08 0 1.0441e-08)
(1.68957e-08 0 0 1.68957e-08 0 1.68957e-08)
(1.70069e-08 0 0 1.70069e-08 0 1.70069e-08)
(1.05391e-08 0 0 1.05391e-08 0 1.05391e-08)
(4.94645e-09 0 0 4.94645e-09 0 4.94645e-09)
(2.35044e-09 0 0 2.35044e-09 0 2.35044e-09)
(1.44204e-09 0 0 1.44204e-09 0 1.44204e-09)
(1.30912e-09 0 0 1.30912e-09 0 1.30912e-09)
(1.786e-09 0 0 1.786e-09 0 1.786e-09)
(3.28784e-09 0 0 3.28784e-09 0 3.28784e-09)
(6.63656e-09 0 0 6.63656e-09 0 6.63656e-09)
(1.16347e-08 0 0 1.16347e-08 0 1.16347e-08)
(1.50721e-08 0 0 1.50721e-08 0 1.50721e-08)
(1.38543e-08 0 0 1.38543e-08 0 1.38543e-08)
(9.4941e-09 0 0 9.4941e-09 0 9.4941e-09)
(5.23133e-09 0 0 5.23133e-09 0 5.23133e-09)
(2.50791e-09 0 0 2.50791e-09 0 2.50791e-09)
(1.16887e-09 0 0 1.16887e-09 0 1.16887e-09)
(6.21414e-10 0 0 6.21414e-10 0 6.21414e-10)
(4.4038e-10 0 0 4.4038e-10 0 4.4038e-10)
(4.40069e-10 0 0 4.40069e-10 0 4.40069e-10)
(5.648e-10 0 0 5.648e-10 0 5.648e-10)
(7.68453e-10 0 0 7.68453e-10 0 7.68453e-10)
(9.30614e-10 0 0 9.30614e-10 0 9.30614e-10)
(9.37897e-10 0 0 9.37897e-10 0 9.37897e-10)
(8.2791e-10 0 0 8.2791e-10 0 8.2791e-10)
(7.21121e-10 0 0 7.21121e-10 0 7.21121e-10)
(7.04536e-10 0 0 7.04536e-10 0 7.04536e-10)
(8.50747e-10 0 0 8.50747e-10 0 8.50747e-10)
(1.31604e-09 0 0 1.31604e-09 0 1.31604e-09)
(2.46933e-09 0 0 2.46933e-09 0 2.46933e-09)
(4.80576e-09 0 0 4.80576e-09 0 4.80576e-09)
(7.77697e-09 0 0 7.77697e-09 0 7.77697e-09)
(8.63654e-09 0 0 8.63654e-09 0 8.63654e-09)
(6.27245e-09 0 0 6.27245e-09 0 6.27245e-09)
(3.51396e-09 0 0 3.51396e-09 0 3.51396e-09)
(2.12918e-09 0 0 2.12918e-09 0 2.12918e-09)
(1.96502e-09 0 0 1.96502e-09 0 1.96502e-09)
(3.09874e-09 0 0 3.09874e-09 0 3.09874e-09)
(6.43149e-09 0 0 6.43149e-09 0 6.43149e-09)
(1.00946e-08 0 0 1.00946e-08 0 1.00946e-08)
(7.16475e-09 0 0 7.16475e-09 0 7.16475e-09)
(2.12877e-09 0 0 2.12877e-09 0 2.12877e-09)
(4.45784e-10 0 0 4.45784e-10 0 4.45784e-10)
(1.56023e-10 0 0 1.56023e-10 0 1.56023e-10)
(1.76933e-10 0 0 1.76933e-10 0 1.76933e-10)
(6.57647e-10 0 0 6.57647e-10 0 6.57647e-10)
(4.18627e-09 0 0 4.18627e-09 0 4.18627e-09)
(1.90828e-08 0 0 1.90828e-08 0 1.90828e-08)
(3.58779e-08 0 0 3.58779e-08 0 3.58779e-08)
(2.81699e-08 0 0 2.81699e-08 0 2.81699e-08)
(1.3717e-08 0 0 1.3717e-08 0 1.3717e-08)
(6.18049e-09 0 0 6.18049e-09 0 6.18049e-09)
(3.04615e-09 0 0 3.04615e-09 0 3.04615e-09)
(1.60266e-09 0 0 1.60266e-09 0 1.60266e-09)
(8.66536e-10 0 0 8.66536e-10 0 8.66536e-10)
(5.02523e-10 0 0 5.02523e-10 0 5.02523e-10)
(3.35828e-10 0 0 3.35828e-10 0 3.35828e-10)
(2.65195e-10 0 0 2.65195e-10 0 2.65195e-10)
(2.47833e-10 0 0 2.47833e-10 0 2.47833e-10)
(2.92218e-10 0 0 2.92218e-10 0 2.92218e-10)
(4.97096e-10 0 0 4.97096e-10 0 4.97096e-10)
(1.31745e-09 0 0 1.31745e-09 0 1.31745e-09)
(4.81084e-09 0 0 4.81084e-09 0 4.81084e-09)
(1.76978e-08 0 0 1.76978e-08 0 1.76978e-08)
(4.73044e-08 0 0 4.73044e-08 0 4.73044e-08)
(7.80256e-08 0 0 7.80256e-08 0 7.80256e-08)
(8.05951e-08 0 0 8.05951e-08 0 8.05951e-08)
(5.59795e-08 0 0 5.59795e-08 0 5.59795e-08)
(2.74506e-08 0 0 2.74506e-08 0 2.74506e-08)
(1.0453e-08 0 0 1.0453e-08 0 1.0453e-08)
(3.95581e-09 0 0 3.95581e-09 0 3.95581e-09)
(2.08024e-09 0 0 2.08024e-09 0 2.08024e-09)
(1.79262e-09 0 0 1.79262e-09 0 1.79262e-09)
(2.02712e-09 0 0 2.02712e-09 0 2.02712e-09)
(1.81313e-09 0 0 1.81313e-09 0 1.81313e-09)
(8.83008e-10 0 0 8.83008e-10 0 8.83008e-10)
(2.70606e-10 0 0 2.70606e-10 0 2.70606e-10)
(9.8848e-11 0 0 9.8848e-11 0 9.8848e-11)
(8.39494e-11 0 0 8.39494e-11 0 8.39494e-11)
(1.95865e-10 0 0 1.95865e-10 0 1.95865e-10)
(7.74038e-10 0 0 7.74038e-10 0 7.74038e-10)
(2.36107e-09 0 0 2.36107e-09 0 2.36107e-09)
(3.22177e-09 0 0 3.22177e-09 0 3.22177e-09)
(1.97326e-09 0 0 1.97326e-09 0 1.97326e-09)
(8.4391e-10 0 0 8.4391e-10 0 8.4391e-10)
(4.23654e-10 0 0 4.23654e-10 0 4.23654e-10)
(3.36077e-10 0 0 3.36077e-10 0 3.36077e-10)
(4.25777e-10 0 0 4.25777e-10 0 4.25777e-10)
(7.30948e-10 0 0 7.30948e-10 0 7.30948e-10)
(1.37383e-09 0 0 1.37383e-09 0 1.37383e-09)
(2.29047e-09 0 0 2.29047e-09 0 2.29047e-09)
(2.79011e-09 0 0 2.79011e-09 0 2.79011e-09)
(2.18227e-09 0 0 2.18227e-09 0 2.18227e-09)
(1.12083e-09 0 0 1.12083e-09 0 1.12083e-09)
(4.72291e-10 0 0 4.72291e-10 0 4.72291e-10)
(2.32841e-10 0 0 2.32841e-10 0 2.32841e-10)
(1.8318e-10 0 0 1.8318e-10 0 1.8318e-10)
(2.50175e-10 0 0 2.50175e-10 0 2.50175e-10)
(4.8466e-10 0 0 4.8466e-10 0 4.8466e-10)
(9.13596e-10 0 0 9.13596e-10 0 9.13596e-10)
(1.19512e-09 0 0 1.19512e-09 0 1.19512e-09)
(9.62615e-10 0 0 9.62615e-10 0 9.62615e-10)
(5.48101e-10 0 0 5.48101e-10 0 5.48101e-10)
(2.94845e-10 0 0 2.94845e-10 0 2.94845e-10)
(1.96626e-10 0 0 1.96626e-10 0 1.96626e-10)
(1.82501e-10 0 0 1.82501e-10 0 1.82501e-10)
(2.16143e-10 0 0 2.16143e-10 0 2.16143e-10)
(2.58766e-10 0 0 2.58766e-10 0 2.58766e-10)
(2.45941e-10 0 0 2.45941e-10 0 2.45941e-10)
(1.69048e-10 0 0 1.69048e-10 0 1.69048e-10)
(9.60175e-11 0 0 9.60175e-11 0 9.60175e-11)
(5.96955e-11 0 0 5.96955e-11 0 5.96955e-11)
(5.09177e-11 0 0 5.09177e-11 0 5.09177e-11)
(5.9876e-11 0 0 5.9876e-11 0 5.9876e-11)
(8.09451e-11 0 0 8.09451e-11 0 8.09451e-11)
(1.08465e-10 0 0 1.08465e-10 0 1.08465e-10)
(1.54762e-10 0 0 1.54762e-10 0 1.54762e-10)
(2.94336e-10 0 0 2.94336e-10 0 2.94336e-10)
(8.13577e-10 0 0 8.13577e-10 0 8.13577e-10)
(2.48457e-09 0 0 2.48457e-09 0 2.48457e-09)
(4.98782e-09 0 0 4.98782e-09 0 4.98782e-09)
(4.57198e-09 0 0 4.57198e-09 0 4.57198e-09)
(2.1475e-09 0 0 2.1475e-09 0 2.1475e-09)
(8.80879e-10 0 0 8.80879e-10 0 8.80879e-10)
(5.49376e-10 0 0 5.49376e-10 0 5.49376e-10)
(6.39197e-10 0 0 6.39197e-10 0 6.39197e-10)
(1.13949e-09 0 0 1.13949e-09 0 1.13949e-09)
(2.14404e-09 0 0 2.14404e-09 0 2.14404e-09)
(3.10322e-09 0 0 3.10322e-09 0 3.10322e-09)
(2.85874e-09 0 0 2.85874e-09 0 2.85874e-09)
(1.56067e-09 0 0 1.56067e-09 0 1.56067e-09)
(5.60002e-10 0 0 5.60002e-10 0 5.60002e-10)
(1.89317e-10 0 0 1.89317e-10 0 1.89317e-10)
(1.02445e-10 0 0 1.02445e-10 0 1.02445e-10)
(1.30919e-10 0 0 1.30919e-10 0 1.30919e-10)
(3.76213e-10 0 0 3.76213e-10 0 3.76213e-10)
(1.53936e-09 0 0 1.53936e-09 0 1.53936e-09)
(5.46469e-09 0 0 5.46469e-09 0 5.46469e-09)
(1.40723e-08 0 0 1.40723e-08 0 1.40723e-08)
(2.97504e-08 0 0 2.97504e-08 0 2.97504e-08)
(5.65707e-08 0 0 5.65707e-08 0 5.65707e-08)
(7.99358e-08 0 0 7.99358e-08 0 7.99358e-08)
(6.03541e-08 0 0 6.03541e-08 0 6.03541e-08)
(2.24032e-08 0 0 2.24032e-08 0 2.24032e-08)
(5.77878e-09 0 0 5.77878e-09 0 5.77878e-09)
(1.75257e-09 0 0 1.75257e-09 0 1.75257e-09)
(8.24535e-10 0 0 8.24535e-10 0 8.24535e-10)
(5.30728e-10 0 0 5.30728e-10 0 5.30728e-10)
(3.58725e-10 0 0 3.58725e-10 0 3.58725e-10)
(2.4427e-10 0 0 2.4427e-10 0 2.4427e-10)
(2.10722e-10 0 0 2.10722e-10 0 2.10722e-10)
(2.78951e-10 0 0 2.78951e-10 0 2.78951e-10)
(4.90548e-10 0 0 4.90548e-10 0 4.90548e-10)
(7.55815e-10 0 0 7.55815e-10 0 7.55815e-10)
(7.48545e-10 0 0 7.48545e-10 0 7.48545e-10)
(5.28161e-10 0 0 5.28161e-10 0 5.28161e-10)
(4.1287e-10 0 0 4.1287e-10 0 4.1287e-10)
(5.34521e-10 0 0 5.34521e-10 0 5.34521e-10)
(1.18316e-09 0 0 1.18316e-09 0 1.18316e-09)
(3.1471e-09 0 0 3.1471e-09 0 3.1471e-09)
(6.29859e-09 0 0 6.29859e-09 0 6.29859e-09)
(7.21918e-09 0 0 7.21918e-09 0 7.21918e-09)
(5.06528e-09 0 0 5.06528e-09 0 5.06528e-09)
(3.05888e-09 0 0 3.05888e-09 0 3.05888e-09)
(2.41356e-09 0 0 2.41356e-09 0 2.41356e-09)
(3.2717e-09 0 0 3.2717e-09 0 3.2717e-09)
(7.50563e-09 0 0 7.50563e-09 0 7.50563e-09)
(2.15894e-08 0 0 2.15894e-08 0 2.15894e-08)
(5.08564e-08 0 0 5.08564e-08 0 5.08564e-08)
(7.03482e-08 0 0 7.03482e-08 0 7.03482e-08)
(5.1597e-08 0 0 5.1597e-08 0 5.1597e-08)
(2.24417e-08 0 0 2.24417e-08 0 2.24417e-08)
(7.18289e-09 0 0 7.18289e-09 0 7.18289e-09)
(2.13576e-09 0 0 2.13576e-09 0 2.13576e-09)
(7.43496e-10 0 0 7.43496e-10 0 7.43496e-10)
(3.77992e-10 0 0 3.77992e-10 0 3.77992e-10)
(3.26033e-10 0 0 3.26033e-10 0 3.26033e-10)
(4.74568e-10 0 0 4.74568e-10 0 4.74568e-10)
(9.77026e-10 0 0 9.77026e-10 0 9.77026e-10)
(2.19569e-09 0 0 2.19569e-09 0 2.19569e-09)
(4.33143e-09 0 0 4.33143e-09 0 4.33143e-09)
(6.67349e-09 0 0 6.67349e-09 0 6.67349e-09)
(7.7303e-09 0 0 7.7303e-09 0 7.7303e-09)
(1.11716e-09 0 0 1.11716e-09 0 1.11716e-09)
(1.24856e-09 0 0 1.24856e-09 0 1.24856e-09)
(1.36502e-09 0 0 1.36502e-09 0 1.36502e-09)
(1.34701e-09 0 0 1.34701e-09 0 1.34701e-09)
(1.12124e-09 0 0 1.12124e-09 0 1.12124e-09)
(7.38043e-10 0 0 7.38043e-10 0 7.38043e-10)
(3.81083e-10 0 0 3.81083e-10 0 3.81083e-10)
(1.78392e-10 0 0 1.78392e-10 0 1.78392e-10)
(1.03467e-10 0 0 1.03467e-10 0 1.03467e-10)
(1.02682e-10 0 0 1.02682e-10 0 1.02682e-10)
(1.91422e-10 0 0 1.91422e-10 0 1.91422e-10)
(5.29172e-10 0 0 5.29172e-10 0 5.29172e-10)
(1.45374e-09 0 0 1.45374e-09 0 1.45374e-09)
(3.04596e-09 0 0 3.04596e-09 0 3.04596e-09)
(4.97432e-09 0 0 4.97432e-09 0 4.97432e-09)
(7.5095e-09 0 0 7.5095e-09 0 7.5095e-09)
(1.10406e-08 0 0 1.10406e-08 0 1.10406e-08)
(1.33006e-08 0 0 1.33006e-08 0 1.33006e-08)
(1.04201e-08 0 0 1.04201e-08 0 1.04201e-08)
(5.13945e-09 0 0 5.13945e-09 0 5.13945e-09)
(2.0355e-09 0 0 2.0355e-09 0 2.0355e-09)
(9.16616e-10 0 0 9.16616e-10 0 9.16616e-10)
(5.85178e-10 0 0 5.85178e-10 0 5.85178e-10)
(5.40685e-10 0 0 5.40685e-10 0 5.40685e-10)
(6.70063e-10 0 0 6.70063e-10 0 6.70063e-10)
(1.04702e-09 0 0 1.04702e-09 0 1.04702e-09)
(1.93884e-09 0 0 1.93884e-09 0 1.93884e-09)
(3.67137e-09 0 0 3.67137e-09 0 3.67137e-09)
(5.62429e-09 0 0 5.62429e-09 0 5.62429e-09)
(5.78103e-09 0 0 5.78103e-09 0 5.78103e-09)
(4.00606e-09 0 0 4.00606e-09 0 4.00606e-09)
(2.27295e-09 0 0 2.27295e-09 0 2.27295e-09)
(1.32421e-09 0 0 1.32421e-09 0 1.32421e-09)
(8.75608e-10 0 0 8.75608e-10 0 8.75608e-10)
(6.33229e-10 0 0 6.33229e-10 0 6.33229e-10)
(4.76571e-10 0 0 4.76571e-10 0 4.76571e-10)
(3.91507e-10 0 0 3.91507e-10 0 3.91507e-10)
(3.95065e-10 0 0 3.95065e-10 0 3.95065e-10)
(5.16509e-10 0 0 5.16509e-10 0 5.16509e-10)
(7.82473e-10 0 0 7.82473e-10 0 7.82473e-10)
(1.08697e-09 0 0 1.08697e-09 0 1.08697e-09)
(1.13383e-09 0 0 1.13383e-09 0 1.13383e-09)
(8.64605e-10 0 0 8.64605e-10 0 8.64605e-10)
(5.64088e-10 0 0 5.64088e-10 0 5.64088e-10)
(3.95396e-10 0 0 3.95396e-10 0 3.95396e-10)
(3.48575e-10 0 0 3.48575e-10 0 3.48575e-10)
(3.93953e-10 0 0 3.93953e-10 0 3.93953e-10)
(5.20708e-10 0 0 5.20708e-10 0 5.20708e-10)
(7.08256e-10 0 0 7.08256e-10 0 7.08256e-10)
(8.98749e-10 0 0 8.98749e-10 0 8.98749e-10)
(1.03423e-09 0 0 1.03423e-09 0 1.03423e-09)
(1.1479e-09 0 0 1.1479e-09 0 1.1479e-09)
(1.41034e-09 0 0 1.41034e-09 0 1.41034e-09)
(2.18724e-09 0 0 2.18724e-09 0 2.18724e-09)
(4.21147e-09 0 0 4.21147e-09 0 4.21147e-09)
(7.7465e-09 0 0 7.7465e-09 0 7.7465e-09)
(8.87387e-09 0 0 8.87387e-09 0 8.87387e-09)
(4.61025e-09 0 0 4.61025e-09 0 4.61025e-09)
(1.1883e-09 0 0 1.1883e-09 0 1.1883e-09)
(2.63902e-10 0 0 2.63902e-10 0 2.63902e-10)
(1.03996e-10 0 0 1.03996e-10 0 1.03996e-10)
(1.1279e-10 0 0 1.1279e-10 0 1.1279e-10)
(3.00448e-10 0 0 3.00448e-10 0 3.00448e-10)
(1.14227e-09 0 0 1.14227e-09 0 1.14227e-09)
(3.49745e-09 0 0 3.49745e-09 0 3.49745e-09)
(6.65887e-09 0 0 6.65887e-09 0 6.65887e-09)
(8.66556e-09 0 0 8.66556e-09 0 8.66556e-09)
(9.61193e-09 0 0 9.61193e-09 0 9.61193e-09)
(1.00074e-08 0 0 1.00074e-08 0 1.00074e-08)
(8.87699e-09 0 0 8.87699e-09 0 8.87699e-09)
(5.65207e-09 0 0 5.65207e-09 0 5.65207e-09)
(2.37981e-09 0 0 2.37981e-09 0 2.37981e-09)
(7.23424e-10 0 0 7.23424e-10 0 7.23424e-10)
(2.00408e-10 0 0 2.00408e-10 0 2.00408e-10)
(6.83264e-11 0 0 6.83264e-11 0 6.83264e-11)
(3.80597e-11 0 0 3.80597e-11 0 3.80597e-11)
(4.17869e-11 0 0 4.17869e-11 0 4.17869e-11)
(9.29232e-11 0 0 9.29232e-11 0 9.29232e-11)
(3.56336e-10 0 0 3.56336e-10 0 3.56336e-10)
(1.7183e-09 0 0 1.7183e-09 0 1.7183e-09)
(7.13927e-09 0 0 7.13927e-09 0 7.13927e-09)
(1.85931e-08 0 0 1.85931e-08 0 1.85931e-08)
(2.60255e-08 0 0 2.60255e-08 0 2.60255e-08)
(2.05536e-08 0 0 2.05536e-08 0 2.05536e-08)
(1.11453e-08 0 0 1.11453e-08 0 1.11453e-08)
(5.2001e-09 0 0 5.2001e-09 0 5.2001e-09)
(2.44083e-09 0 0 2.44083e-09 0 2.44083e-09)
(1.25208e-09 0 0 1.25208e-09 0 1.25208e-09)
(7.59913e-10 0 0 7.59913e-10 0 7.59913e-10)
(6.08172e-10 0 0 6.08172e-10 0 6.08172e-10)
(6.76573e-10 0 0 6.76573e-10 0 6.76573e-10)
(9.18989e-10 0 0 9.18989e-10 0 9.18989e-10)
(1.12942e-09 0 0 1.12942e-09 0 1.12942e-09)
(9.83905e-10 0 0 9.83905e-10 0 9.83905e-10)
(6.54266e-10 0 0 6.54266e-10 0 6.54266e-10)
(4.95568e-10 0 0 4.95568e-10 0 4.95568e-10)
(6.34702e-10 0 0 6.34702e-10 0 6.34702e-10)
(1.36555e-09 0 0 1.36555e-09 0 1.36555e-09)
(3.08359e-09 0 0 3.08359e-09 0 3.08359e-09)
(4.18379e-09 0 0 4.18379e-09 0 4.18379e-09)
(2.88065e-09 0 0 2.88065e-09 0 2.88065e-09)
(1.41038e-09 0 0 1.41038e-09 0 1.41038e-09)
(8.07047e-10 0 0 8.07047e-10 0 8.07047e-10)
(6.64244e-10 0 0 6.64244e-10 0 6.64244e-10)
(6.53195e-10 0 0 6.53195e-10 0 6.53195e-10)
(5.83558e-10 0 0 5.83558e-10 0 5.83558e-10)
(4.66415e-10 0 0 4.66415e-10 0 4.66415e-10)
(4.2889e-10 0 0 4.2889e-10 0 4.2889e-10)
(5.55723e-10 0 0 5.55723e-10 0 5.55723e-10)
(9.03062e-10 0 0 9.03062e-10 0 9.03062e-10)
(1.28568e-09 0 0 1.28568e-09 0 1.28568e-09)
(1.23269e-09 0 0 1.23269e-09 0 1.23269e-09)
(8.56484e-10 0 0 8.56484e-10 0 8.56484e-10)
(5.92975e-10 0 0 5.92975e-10 0 5.92975e-10)
(5.28393e-10 0 0 5.28393e-10 0 5.28393e-10)
(5.93287e-10 0 0 5.93287e-10 0 5.93287e-10)
(6.58075e-10 0 0 6.58075e-10 0 6.58075e-10)
(5.69557e-10 0 0 5.69557e-10 0 5.69557e-10)
(3.68076e-10 0 0 3.68076e-10 0 3.68076e-10)
(2.09242e-10 0 0 2.09242e-10 0 2.09242e-10)
(1.35078e-10 0 0 1.35078e-10 0 1.35078e-10)
(1.20651e-10 0 0 1.20651e-10 0 1.20651e-10)
(1.53239e-10 0 0 1.53239e-10 0 1.53239e-10)
(2.31451e-10 0 0 2.31451e-10 0 2.31451e-10)
(3.04425e-10 0 0 3.04425e-10 0 3.04425e-10)
(2.66859e-10 0 0 2.66859e-10 0 2.66859e-10)
(1.50569e-10 0 0 1.50569e-10 0 1.50569e-10)
(7.07423e-11 0 0 7.07423e-11 0 7.07423e-11)
(4.18947e-11 0 0 4.18947e-11 0 4.18947e-11)
(4.33904e-11 0 0 4.33904e-11 0 4.33904e-11)
(8.35026e-11 0 0 8.35026e-11 0 8.35026e-11)
(2.41709e-10 0 0 2.41709e-10 0 2.41709e-10)
(7.45283e-10 0 0 7.45283e-10 0 7.45283e-10)
(1.79112e-09 0 0 1.79112e-09 0 1.79112e-09)
(2.81902e-09 0 0 2.81902e-09 0 2.81902e-09)
(2.87648e-09 0 0 2.87648e-09 0 2.87648e-09)
(2.13986e-09 0 0 2.13986e-09 0 2.13986e-09)
(1.3734e-09 0 0 1.3734e-09 0 1.3734e-09)
(8.74504e-10 0 0 8.74504e-10 0 8.74504e-10)
(5.9925e-10 0 0 5.9925e-10 0 5.9925e-10)
(4.71849e-10 0 0 4.71849e-10 0 4.71849e-10)
(4.75106e-10 0 0 4.75106e-10 0 4.75106e-10)
(6.91674e-10 0 0 6.91674e-10 0 6.91674e-10)
(1.46884e-09 0 0 1.46884e-09 0 1.46884e-09)
(3.6341e-09 0 0 3.6341e-09 0 3.6341e-09)
(6.94044e-09 0 0 6.94044e-09 0 6.94044e-09)
(7.1325e-09 0 0 7.1325e-09 0 7.1325e-09)
(3.75517e-09 0 0 3.75517e-09 0 3.75517e-09)
(1.40134e-09 0 0 1.40134e-09 0 1.40134e-09)
(6.08776e-10 0 0 6.08776e-10 0 6.08776e-10)
(4.40672e-10 0 0 4.40672e-10 0 4.40672e-10)
(5.53916e-10 0 0 5.53916e-10 0 5.53916e-10)
(9.70339e-10 0 0 9.70339e-10 0 9.70339e-10)
(1.78817e-09 0 0 1.78817e-09 0 1.78817e-09)
(2.90515e-09 0 0 2.90515e-09 0 2.90515e-09)
(3.99414e-09 0 0 3.99414e-09 0 3.99414e-09)
(4.77009e-09 0 0 4.77009e-09 0 4.77009e-09)
(5.07156e-09 0 0 5.07156e-09 0 5.07156e-09)
(4.86831e-09 0 0 4.86831e-09 0 4.86831e-09)
(4.36328e-09 0 0 4.36328e-09 0 4.36328e-09)
(3.8801e-09 0 0 3.8801e-09 0 3.8801e-09)
(3.57153e-09 0 0 3.57153e-09 0 3.57153e-09)
(3.27349e-09 0 0 3.27349e-09 0 3.27349e-09)
(2.64125e-09 0 0 2.64125e-09 0 2.64125e-09)
(1.67761e-09 0 0 1.67761e-09 0 1.67761e-09)
(8.69277e-10 0 0 8.69277e-10 0 8.69277e-10)
(4.61752e-10 0 0 4.61752e-10 0 4.61752e-10)
(3.36663e-10 0 0 3.36663e-10 0 3.36663e-10)
(3.82003e-10 0 0 3.82003e-10 0 3.82003e-10)
(5.69261e-10 0 0 5.69261e-10 0 5.69261e-10)
(7.87467e-10 0 0 7.87467e-10 0 7.87467e-10)
(8.01051e-10 0 0 8.01051e-10 0 8.01051e-10)
(6.55401e-10 0 0 6.55401e-10 0 6.55401e-10)
(6.03887e-10 0 0 6.03887e-10 0 6.03887e-10)
(8.32337e-10 0 0 8.32337e-10 0 8.32337e-10)
(1.68436e-09 0 0 1.68436e-09 0 1.68436e-09)
(3.71314e-09 0 0 3.71314e-09 0 3.71314e-09)
(6.44906e-09 0 0 6.44906e-09 0 6.44906e-09)
(7.90078e-09 0 0 7.90078e-09 0 7.90078e-09)
(7.77024e-09 0 0 7.77024e-09 0 7.77024e-09)
(7.57368e-09 0 0 7.57368e-09 0 7.57368e-09)
(8.31616e-09 0 0 8.31616e-09 0 8.31616e-09)
(1.02977e-08 0 0 1.02977e-08 0 1.02977e-08)
(1.32717e-08 0 0 1.32717e-08 0 1.32717e-08)
(1.58083e-08 0 0 1.58083e-08 0 1.58083e-08)
(1.51171e-08 0 0 1.51171e-08 0 1.51171e-08)
(1.03034e-08 0 0 1.03034e-08 0 1.03034e-08)
(4.9752e-09 0 0 4.9752e-09 0 4.9752e-09)
(2.02102e-09 0 0 2.02102e-09 0 2.02102e-09)
(9.29019e-10 0 0 9.29019e-10 0 9.29019e-10)
(6.26746e-10 0 0 6.26746e-10 0 6.26746e-10)
(6.68302e-10 0 0 6.68302e-10 0 6.68302e-10)
(9.83045e-10 0 0 9.83045e-10 0 9.83045e-10)
(1.56227e-09 0 0 1.56227e-09 0 1.56227e-09)
(2.15846e-09 0 0 2.15846e-09 0 2.15846e-09)
(2.3304e-09 0 0 2.3304e-09 0 2.3304e-09)
(2.00235e-09 0 0 2.00235e-09 0 2.00235e-09)
(1.53043e-09 0 0 1.53043e-09 0 1.53043e-09)
(1.20228e-09 0 0 1.20228e-09 0 1.20228e-09)
(1.07773e-09 0 0 1.07773e-09 0 1.07773e-09)
(8.89648e-10 0 0 8.89648e-10 0 8.89648e-10)
(1.14963e-09 0 0 1.14963e-09 0 1.14963e-09)
(1.488e-09 0 0 1.488e-09 0 1.488e-09)
(1.98667e-09 0 0 1.98667e-09 0 1.98667e-09)
(2.58701e-09 0 0 2.58701e-09 0 2.58701e-09)
(2.60995e-09 0 0 2.60995e-09 0 2.60995e-09)
(1.58078e-09 0 0 1.58078e-09 0 1.58078e-09)
(5.91346e-10 0 0 5.91346e-10 0 5.91346e-10)
(2.16738e-10 0 0 2.16738e-10 0 2.16738e-10)
(1.5018e-10 0 0 1.5018e-10 0 1.5018e-10)
(2.85778e-10 0 0 2.85778e-10 0 2.85778e-10)
(1.20331e-09 0 0 1.20331e-09 0 1.20331e-09)
(5.82951e-09 0 0 5.82951e-09 0 5.82951e-09)
(1.74532e-08 0 0 1.74532e-08 0 1.74532e-08)
(2.60249e-08 0 0 2.60249e-08 0 2.60249e-08)
(2.31878e-08 0 0 2.31878e-08 0 2.31878e-08)
(1.64274e-08 0 0 1.64274e-08 0 1.64274e-08)
(1.05498e-08 0 0 1.05498e-08 0 1.05498e-08)
(5.91343e-09 0 0 5.91343e-09 0 5.91343e-09)
(2.75714e-09 0 0 2.75714e-09 0 2.75714e-09)
(1.14098e-09 0 0 1.14098e-09 0 1.14098e-09)
(4.90372e-10 0 0 4.90372e-10 0 4.90372e-10)
(2.53969e-10 0 0 2.53969e-10 0 2.53969e-10)
(1.7101e-10 0 0 1.7101e-10 0 1.7101e-10)
(1.51218e-10 0 0 1.51218e-10 0 1.51218e-10)
(1.70874e-10 0 0 1.70874e-10 0 1.70874e-10)
(2.32537e-10 0 0 2.32537e-10 0 2.32537e-10)
(3.45636e-10 0 0 3.45636e-10 0 3.45636e-10)
(4.98318e-10 0 0 4.98318e-10 0 4.98318e-10)
(6.34221e-10 0 0 6.34221e-10 0 6.34221e-10)
(6.9099e-10 0 0 6.9099e-10 0 6.9099e-10)
(6.64438e-10 0 0 6.64438e-10 0 6.64438e-10)
(5.91974e-10 0 0 5.91974e-10 0 5.91974e-10)
(4.98065e-10 0 0 4.98065e-10 0 4.98065e-10)
(3.88729e-10 0 0 3.88729e-10 0 3.88729e-10)
(2.79641e-10 0 0 2.79641e-10 0 2.79641e-10)
(1.98964e-10 0 0 1.98964e-10 0 1.98964e-10)
(1.63814e-10 0 0 1.63814e-10 0 1.63814e-10)
(1.82587e-10 0 0 1.82587e-10 0 1.82587e-10)
(2.82971e-10 0 0 2.82971e-10 0 2.82971e-10)
(5.20239e-10 0 0 5.20239e-10 0 5.20239e-10)
(8.78003e-10 0 0 8.78003e-10 0 8.78003e-10)
(1.12435e-09 0 0 1.12435e-09 0 1.12435e-09)
(1.05725e-09 0 0 1.05725e-09 0 1.05725e-09)
(7.87123e-10 0 0 7.87123e-10 0 7.87123e-10)
(5.02867e-10 0 0 5.02867e-10 0 5.02867e-10)
(2.94312e-10 0 0 2.94312e-10 0 2.94312e-10)
(1.78278e-10 0 0 1.78278e-10 0 1.78278e-10)
(1.37247e-10 0 0 1.37247e-10 0 1.37247e-10)
(1.59022e-10 0 0 1.59022e-10 0 1.59022e-10)
(2.67398e-10 0 0 2.67398e-10 0 2.67398e-10)
(5.07159e-10 0 0 5.07159e-10 0 5.07159e-10)
(8.38051e-10 0 0 8.38051e-10 0 8.38051e-10)
(1.15964e-09 0 0 1.15964e-09 0 1.15964e-09)
(1.5735e-09 0 0 1.5735e-09 0 1.5735e-09)
(2.28567e-09 0 0 2.28567e-09 0 2.28567e-09)
(2.92125e-09 0 0 2.92125e-09 0 2.92125e-09)
(2.28739e-09 0 0 2.28739e-09 0 2.28739e-09)
(9.38854e-10 0 0 9.38854e-10 0 9.38854e-10)
(2.70792e-10 0 0 2.70792e-10 0 2.70792e-10)
(9.7762e-11 0 0 9.7762e-11 0 9.7762e-11)
(6.75096e-11 0 0 6.75096e-11 0 6.75096e-11)
(8.70373e-11 0 0 8.70373e-11 0 8.70373e-11)
(1.45769e-10 0 0 1.45769e-10 0 1.45769e-10)
(2.27871e-10 0 0 2.27871e-10 0 2.27871e-10)
(3.20417e-10 0 0 3.20417e-10 0 3.20417e-10)
(4.93363e-10 0 0 4.93363e-10 0 4.93363e-10)
(9.80997e-10 0 0 9.80997e-10 0 9.80997e-10)
(2.34861e-09 0 0 2.34861e-09 0 2.34861e-09)
(5.02448e-09 0 0 5.02448e-09 0 5.02448e-09)
(6.68451e-09 0 0 6.68451e-09 0 6.68451e-09)
(4.36017e-09 0 0 4.36017e-09 0 4.36017e-09)
(1.41319e-09 0 0 1.41319e-09 0 1.41319e-09)
(3.04128e-10 0 0 3.04128e-10 0 3.04128e-10)
(6.95508e-11 0 0 6.95508e-11 0 6.95508e-11)
(2.66584e-11 0 0 2.66584e-11 0 2.66584e-11)
(2.19745e-11 0 0 2.19745e-11 0 2.19745e-11)
(3.80551e-11 0 0 3.80551e-11 0 3.80551e-11)
(1.11582e-10 0 0 1.11582e-10 0 1.11582e-10)
(4.15433e-10 0 0 4.15433e-10 0 4.15433e-10)
(1.45062e-09 0 0 1.45062e-09 0 1.45062e-09)
(3.51845e-09 0 0 3.51845e-09 0 3.51845e-09)
(4.77068e-09 0 0 4.77068e-09 0 4.77068e-09)
(3.64716e-09 0 0 3.64716e-09 0 3.64716e-09)
(2.08973e-09 0 0 2.08973e-09 0 2.08973e-09)
(1.32679e-09 0 0 1.32679e-09 0 1.32679e-09)
(1.15111e-09 0 0 1.15111e-09 0 1.15111e-09)
(1.22752e-09 0 0 1.22752e-09 0 1.22752e-09)
(1.24207e-09 0 0 1.24207e-09 0 1.24207e-09)
(1.05389e-09 0 0 1.05389e-09 0 1.05389e-09)
(8.4198e-10 0 0 8.4198e-10 0 8.4198e-10)
(7.60493e-10 0 0 7.60493e-10 0 7.60493e-10)
(7.99489e-10 0 0 7.99489e-10 0 7.99489e-10)
(8.63782e-10 0 0 8.63782e-10 0 8.63782e-10)
(8.89112e-10 0 0 8.89112e-10 0 8.89112e-10)
(9.63418e-10 0 0 9.63418e-10 0 9.63418e-10)
(1.27267e-09 0 0 1.27267e-09 0 1.27267e-09)
(1.97392e-09 0 0 1.97392e-09 0 1.97392e-09)
(2.78537e-09 0 0 2.78537e-09 0 2.78537e-09)
(2.81161e-09 0 0 2.81161e-09 0 2.81161e-09)
(2.04212e-09 0 0 2.04212e-09 0 2.04212e-09)
(1.30812e-09 0 0 1.30812e-09 0 1.30812e-09)
(8.3962e-10 0 0 8.3962e-10 0 8.3962e-10)
(4.83864e-10 0 0 4.83864e-10 0 4.83864e-10)
(2.09176e-10 0 0 2.09176e-10 0 2.09176e-10)
(7.3029e-11 0 0 7.3029e-11 0 7.3029e-11)
(3.16475e-11 0 0 3.16475e-11 0 3.16475e-11)
(2.83191e-11 0 0 2.83191e-11 0 2.83191e-11)
(6.19939e-11 0 0 6.19939e-11 0 6.19939e-11)
(2.34593e-10 0 0 2.34593e-10 0 2.34593e-10)
(8.00807e-10 0 0 8.00807e-10 0 8.00807e-10)
(1.43976e-09 0 0 1.43976e-09 0 1.43976e-09)
(1.20583e-09 0 0 1.20583e-09 0 1.20583e-09)
(6.40023e-10 0 0 6.40023e-10 0 6.40023e-10)
(3.55394e-10 0 0 3.55394e-10 0 3.55394e-10)
(2.9782e-10 0 0 2.9782e-10 0 2.9782e-10)
(3.77635e-10 0 0 3.77635e-10 0 3.77635e-10)
(5.15344e-10 0 0 5.15344e-10 0 5.15344e-10)
(5.07236e-10 0 0 5.07236e-10 0 5.07236e-10)
(3.24045e-10 0 0 3.24045e-10 0 3.24045e-10)
(1.83444e-10 0 0 1.83444e-10 0 1.83444e-10)
(1.47932e-10 0 0 1.47932e-10 0 1.47932e-10)
(2.09722e-10 0 0 2.09722e-10 0 2.09722e-10)
(4.02607e-10 0 0 4.02607e-10 0 4.02607e-10)
(6.22742e-10 0 0 6.22742e-10 0 6.22742e-10)
(5.46241e-10 0 0 5.46241e-10 0 5.46241e-10)
(2.88053e-10 0 0 2.88053e-10 0 2.88053e-10)
(1.30027e-10 0 0 1.30027e-10 0 1.30027e-10)
(7.28183e-11 0 0 7.28183e-11 0 7.28183e-11)
(6.39009e-11 0 0 6.39009e-11 0 6.39009e-11)
(9.77076e-11 0 0 9.77076e-11 0 9.77076e-11)
(2.5513e-10 0 0 2.5513e-10 0 2.5513e-10)
(8.97848e-10 0 0 8.97848e-10 0 8.97848e-10)
(2.66317e-09 0 0 2.66317e-09 0 2.66317e-09)
(4.17613e-09 0 0 4.17613e-09 0 4.17613e-09)
(3.1177e-09 0 0 3.1177e-09 0 3.1177e-09)
(1.59951e-09 0 0 1.59951e-09 0 1.59951e-09)
(9.47715e-10 0 0 9.47715e-10 0 9.47715e-10)
(7.99452e-10 0 0 7.99452e-10 0 7.99452e-10)
(7.70082e-10 0 0 7.70082e-10 0 7.70082e-10)
(6.28e-10 0 0 6.28e-10 0 6.28e-10)
(4.52984e-10 0 0 4.52984e-10 0 4.52984e-10)
(4.27193e-10 0 0 4.27193e-10 0 4.27193e-10)
(7.18255e-10 0 0 7.18255e-10 0 7.18255e-10)
(1.85418e-09 0 0 1.85418e-09 0 1.85418e-09)
(4.39199e-09 0 0 4.39199e-09 0 4.39199e-09)
(6.26922e-09 0 0 6.26922e-09 0 6.26922e-09)
(5.42177e-09 0 0 5.42177e-09 0 5.42177e-09)
(3.92739e-09 0 0 3.92739e-09 0 3.92739e-09)
(3.1701e-09 0 0 3.1701e-09 0 3.1701e-09)
(3.00152e-09 0 0 3.00152e-09 0 3.00152e-09)
(3.09418e-09 0 0 3.09418e-09 0 3.09418e-09)
(3.39428e-09 0 0 3.39428e-09 0 3.39428e-09)
(4.03577e-09 0 0 4.03577e-09 0 4.03577e-09)
(4.77222e-09 0 0 4.77222e-09 0 4.77222e-09)
(4.54243e-09 0 0 4.54243e-09 0 4.54243e-09)
(3.03095e-09 0 0 3.03095e-09 0 3.03095e-09)
(1.62796e-09 0 0 1.62796e-09 0 1.62796e-09)
(1.01083e-09 0 0 1.01083e-09 0 1.01083e-09)
(9.78091e-10 0 0 9.78091e-10 0 9.78091e-10)
(1.47421e-09 0 0 1.47421e-09 0 1.47421e-09)
(2.65413e-09 0 0 2.65413e-09 0 2.65413e-09)
(4.21857e-09 0 0 4.21857e-09 0 4.21857e-09)
(5.0607e-09 0 0 5.0607e-09 0 5.0607e-09)
(4.60897e-09 0 0 4.60897e-09 0 4.60897e-09)
(3.52728e-09 0 0 3.52728e-09 0 3.52728e-09)
(2.64229e-09 0 0 2.64229e-09 0 2.64229e-09)
(2.27879e-09 0 0 2.27879e-09 0 2.27879e-09)
(2.42812e-09 0 0 2.42812e-09 0 2.42812e-09)
(2.82219e-09 0 0 2.82219e-09 0 2.82219e-09)
(2.72901e-09 0 0 2.72901e-09 0 2.72901e-09)
(1.82842e-09 0 0 1.82842e-09 0 1.82842e-09)
(9.60583e-10 0 0 9.60583e-10 0 9.60583e-10)
(5.82433e-10 0 0 5.82433e-10 0 5.82433e-10)
(5.74858e-10 0 0 5.74858e-10 0 5.74858e-10)
(9.41952e-10 0 0 9.41952e-10 0 9.41952e-10)
(1.91903e-09 0 0 1.91903e-09 0 1.91903e-09)
(3.52951e-09 0 0 3.52951e-09 0 3.52951e-09)
(5.27251e-09 0 0 5.27251e-09 0 5.27251e-09)
(7.03422e-09 0 0 7.03422e-09 0 7.03422e-09)
(9.195e-09 0 0 9.195e-09 0 9.195e-09)
(1.1172e-08 0 0 1.1172e-08 0 1.1172e-08)
(1.09033e-08 0 0 1.09033e-08 0 1.09033e-08)
(7.80997e-09 0 0 7.80997e-09 0 7.80997e-09)
(4.25688e-09 0 0 4.25688e-09 0 4.25688e-09)
(1.97114e-09 0 0 1.97114e-09 0 1.97114e-09)
(8.64201e-10 0 0 8.64201e-10 0 8.64201e-10)
(3.94932e-10 0 0 3.94932e-10 0 3.94932e-10)
(2.10648e-10 0 0 2.10648e-10 0 2.10648e-10)
(1.48176e-10 0 0 1.48176e-10 0 1.48176e-10)
(1.47674e-10 0 0 1.47674e-10 0 1.47674e-10)
(2.02197e-10 0 0 2.02197e-10 0 2.02197e-10)
(3.34612e-10 0 0 3.34612e-10 0 3.34612e-10)
(5.61453e-10 0 0 5.61453e-10 0 5.61453e-10)
(8.11037e-10 0 0 8.11037e-10 0 8.11037e-10)
(9.1817e-10 0 0 9.1817e-10 0 9.1817e-10)
(8.34142e-10 0 0 8.34142e-10 0 8.34142e-10)
(6.99878e-10 0 0 6.99878e-10 0 6.99878e-10)
(6.44949e-10 0 0 6.44949e-10 0 6.44949e-10)
(7.10238e-10 0 0 7.10238e-10 0 7.10238e-10)
(1.74939e-09 0 0 1.74939e-09 0 1.74939e-09)
(2.39494e-09 0 0 2.39494e-09 0 2.39494e-09)
(2.50761e-09 0 0 2.50761e-09 0 2.50761e-09)
(2.32742e-09 0 0 2.32742e-09 0 2.32742e-09)
(2.34166e-09 0 0 2.34166e-09 0 2.34166e-09)
(2.48754e-09 0 0 2.48754e-09 0 2.48754e-09)
(2.14977e-09 0 0 2.14977e-09 0 2.14977e-09)
(1.29736e-09 0 0 1.29736e-09 0 1.29736e-09)
(7.14247e-10 0 0 7.14247e-10 0 7.14247e-10)
(6.28731e-10 0 0 6.28731e-10 0 6.28731e-10)
(1.26272e-09 0 0 1.26272e-09 0 1.26272e-09)
(4.63515e-09 0 0 4.63515e-09 0 4.63515e-09)
(1.61888e-08 0 0 1.61888e-08 0 1.61888e-08)
(3.05387e-08 0 0 3.05387e-08 0 3.05387e-08)
(2.82612e-08 0 0 2.82612e-08 0 2.82612e-08)
(1.73929e-08 0 0 1.73929e-08 0 1.73929e-08)
(1.00033e-08 0 0 1.00033e-08 0 1.00033e-08)
(5.99803e-09 0 0 5.99803e-09 0 5.99803e-09)
(3.41914e-09 0 0 3.41914e-09 0 3.41914e-09)
(1.68105e-09 0 0 1.68105e-09 0 1.68105e-09)
(7.35954e-10 0 0 7.35954e-10 0 7.35954e-10)
(3.32784e-10 0 0 3.32784e-10 0 3.32784e-10)
(1.84152e-10 0 0 1.84152e-10 0 1.84152e-10)
(1.36721e-10 0 0 1.36721e-10 0 1.36721e-10)
(1.29464e-10 0 0 1.29464e-10 0 1.29464e-10)
(1.30265e-10 0 0 1.30265e-10 0 1.30265e-10)
(1.15027e-10 0 0 1.15027e-10 0 1.15027e-10)
(8.68957e-11 0 0 8.68957e-11 0 8.68957e-11)
(6.83491e-11 0 0 6.83491e-11 0 6.83491e-11)
(7.18851e-11 0 0 7.18851e-11 0 7.18851e-11)
(1.05208e-10 0 0 1.05208e-10 0 1.05208e-10)
(1.66151e-10 0 0 1.66151e-10 0 1.66151e-10)
(2.02748e-10 0 0 2.02748e-10 0 2.02748e-10)
(1.72126e-10 0 0 1.72126e-10 0 1.72126e-10)
(1.24868e-10 0 0 1.24868e-10 0 1.24868e-10)
(1.03951e-10 0 0 1.03951e-10 0 1.03951e-10)
(1.1171e-10 0 0 1.1171e-10 0 1.1171e-10)
(1.42328e-10 0 0 1.42328e-10 0 1.42328e-10)
(1.96609e-10 0 0 1.96609e-10 0 1.96609e-10)
(3.09638e-10 0 0 3.09638e-10 0 3.09638e-10)
(6.08365e-10 0 0 6.08365e-10 0 6.08365e-10)
(1.36891e-09 0 0 1.36891e-09 0 1.36891e-09)
(2.57575e-09 0 0 2.57575e-09 0 2.57575e-09)
(2.87427e-09 0 0 2.87427e-09 0 2.87427e-09)
(1.70284e-09 0 0 1.70284e-09 0 1.70284e-09)
(6.59173e-10 0 0 6.59173e-10 0 6.59173e-10)
(2.48015e-10 0 0 2.48015e-10 0 2.48015e-10)
(1.33558e-10 0 0 1.33558e-10 0 1.33558e-10)
(1.29398e-10 0 0 1.29398e-10 0 1.29398e-10)
(2.22553e-10 0 0 2.22553e-10 0 2.22553e-10)
(5.16834e-10 0 0 5.16834e-10 0 5.16834e-10)
(1.06381e-09 0 0 1.06381e-09 0 1.06381e-09)
(1.42658e-09 0 0 1.42658e-09 0 1.42658e-09)
(1.30335e-09 0 0 1.30335e-09 0 1.30335e-09)
(1.16611e-09 0 0 1.16611e-09 0 1.16611e-09)
(1.42686e-09 0 0 1.42686e-09 0 1.42686e-09)
(2.26629e-09 0 0 2.26629e-09 0 2.26629e-09)
(3.03205e-09 0 0 3.03205e-09 0 3.03205e-09)
(2.26396e-09 0 0 2.26396e-09 0 2.26396e-09)
(9.63023e-10 0 0 9.63023e-10 0 9.63023e-10)
(3.70535e-10 0 0 3.70535e-10 0 3.70535e-10)
(2.1419e-10 0 0 2.1419e-10 0 2.1419e-10)
(2.15883e-10 0 0 2.15883e-10 0 2.15883e-10)
(2.96633e-10 0 0 2.96633e-10 0 2.96633e-10)
(3.98172e-10 0 0 3.98172e-10 0 3.98172e-10)
(4.66716e-10 0 0 4.66716e-10 0 4.66716e-10)
(5.48903e-10 0 0 5.48903e-10 0 5.48903e-10)
(7.7471e-10 0 0 7.7471e-10 0 7.7471e-10)
(1.3244e-09 0 0 1.3244e-09 0 1.3244e-09)
(2.25537e-09 0 0 2.25537e-09 0 2.25537e-09)