/*--------------------------------*- C++ -*----------------------------------*\
  =========                 |
  \\      /  F ield         | OpenFOAM: The Open Source CFD Toolbox
   \\    /   O peration     | Website:  https://openfoam.org
    \\  /    A nd           | Version:  8
     \\/     M anipulation  |
\*---------------------------------------------------------------------------*/
FoamFile
{
    version     2.0;
    format      ascii;
    class       volScalarField;
    location    "900";
    object      p;
}
// * * * * * * * * * * * * * * * * * * * * * * * * * * * * * * * * * * * * * //

dimensions      [1 -1 -2 0 0 0 0];

internalField   nonuniform List<scalar> 
20000
(
-376061
-376062
-376063
-376066
-376068
-376072
-376075
-376075
-376066
-376050
-376036
-376028
-376024
-376040
-376054
-376034
-376014
-376022
-376037
-376041
-376035
-376019
-375990
-375952
-375916
-375891
-375876
-375869
-375864
-375859
-375853
-375844
-375829
-375801
-375756
-375693
-375621
-375557
-375509
-375476
-375453
-375435
-375415
-375387
-375348
-375306
-375272
-375249
-375235
-375224
-375212
-375194
-375168
-375139
-375117
-375105
-375102
-375097
-375084
-375043
-374926
-374763
-374661
-374632
-374626
-374624
-374623
-374621
-374617
-374612
-374606
-374592
-374564
-374506
-374407
-374276
-374145
-374048
-373998
-373981
-373976
-373972
-373973
-373971
-373972
-373970
-373966
-373956
-373939
-373918
-373898
-373880
-373861
-373833
-373792
-373741
-373700
-373679
-373670
-373666
-373660
-373647
-373620
-373576
-373521
-373467
-373426
-373398
-373378
-373359
-373337
-373317
-373307
-373310
-373315
-373317
-373316
-373314
-373311
-373305
-373296
-373282
-373267
-373255
-373246
-373237
-373225
-373201
-373158
-373102
-373049
-373016
-372999
-372990
-372983
-372975
-372967
-372959
-372953
-372943
-372922
-372888
-372851
-372825
-372811
-372804
-372798
-372794
-372787
-372776
-372757
-372733
-372714
-372701
-372692
-372687
-372686
-372685
-372686
-372686
-372686
-372687
-372688
-372689
-372690
-372692
-372693
-372695
-372697
-372699
-372700
-372700
-372701
-372703
-372703
-372704
-372704
-372705
-372704
-372702
-372701
-372701
-372704
-372705
-372703
-372699
-372700
-372700
-372700
-372700
-372699
-372697
-372694
-372692
-372690
-372689
-372688
-372688
-372687
-372687
-381000
-381001
-381003
-381006
-381010
-381014
-381019
-381021
-381016
-381000
-380984
-380971
-380962
-380983
-381007
-381002
-380995
-380994
-380990
-380983
-380976
-380961
-380933
-380896
-380861
-380835
-380819
-380810
-380804
-380799
-380793
-380782
-380764
-380734
-380691
-380634
-380565
-380498
-380446
-380411
-380389
-380375
-380362
-380344
-380315
-380276
-380235
-380203
-380181
-380165
-380150
-380130
-380105
-380079
-380059
-380048
-380040
-380033
-380019
-379977
-379869
-379718
-379614
-379579
-379570
-379567
-379563
-379560
-379556
-379551
-379546
-379536
-379517
-379474
-379384
-379247
-379098
-378991
-378942
-378926
-378924
-378928
-378926
-378926
-378916
-378910
-378904
-378893
-378876
-378856
-378835
-378815
-378791
-378763
-378727
-378685
-378649
-378626
-378615
-378609
-378602
-378589
-378565
-378527
-378479
-378427
-378381
-378344
-378315
-378290
-378266
-378245
-378241
-378251
-378259
-378262
-378260
-378257
-378253
-378247
-378236
-378222
-378207
-378197
-378189
-378181
-378169
-378145
-378100
-378039
-377984
-377952
-377939
-377933
-377928
-377922
-377914
-377904
-377895
-377881
-377860
-377828
-377793
-377767
-377754
-377746
-377741
-377736
-377728
-377717
-377700
-377681
-377663
-377648
-377639
-377633
-377632
-377631
-377630
-377629
-377629
-377630
-377631
-377632
-377633
-377635
-377636
-377638
-377640
-377641
-377642
-377643
-377644
-377645
-377646
-377647
-377647
-377647
-377646
-377645
-377644
-377644
-377646
-377645
-377645
-377650
-377643
-377643
-377643
-377642
-377641
-377639
-377636
-377634
-377633
-377632
-377631
-377630
-377630
-377630
-385974
-385976
-385978
-385981
-385986
-385991
-385998
-386005
-386004
-385993
-385975
-385959
-385953
-385976
-385988
-385990
-385990
-385982
-385967
-385959
-385953
-385940
-385916
-385884
-385851
-385824
-385804
-385791
-385782
-385774
-385764
-385749
-385729
-385701
-385661
-385605
-385535
-385464
-385407
-385372
-385354
-385347
-385344
-385336
-385320
-385292
-385254
-385213
-385177
-385149
-385127
-385107
-385086
-385064
-385043
-385025
-385009
-384996
-384978
-384938
-384852
-384729
-384627
-384580
-384562
-384553
-384545
-384537
-384531
-384524
-384518
-384510
-384495
-384460
-384385
-384258
-384111
-383995
-383935
-383912
-383905
-383905
-383895
-383900
-383891
-383884
-383875
-383862
-383846
-383830
-383812
-383791
-383766
-383735
-383699
-383661
-383630
-383610
-383599
-383591
-383582
-383569
-383550
-383522
-383482
-383433
-383377
-383325
-383284
-383254
-383229
-383208
-383210
-383232
-383248
-383250
-383245
-383239
-383233
-383226
-383215
-383200
-383185
-383176
-383169
-383162
-383151
-383128
-383085
-383024
-382968
-382934
-382919
-382913
-382909
-382904
-382896
-382886
-382873
-382859
-382842
-382815
-382780
-382751
-382735
-382727
-382722
-382716
-382707
-382695
-382682
-382665
-382648
-382633
-382623
-382618
-382614
-382611
-382610
-382610
-382611
-382612
-382612
-382613
-382614
-382615
-382617
-382618
-382620
-382621
-382622
-382623
-382625
-382626
-382626
-382627
-382627
-382627
-382626
-382626
-382626
-382625
-382624
-382622
-382621
-382627
-382622
-382622
-382622
-382622
-382621
-382618
-382616
-382614
-382613
-382612
-382611
-382610
-382610
-382610
-390982
-390983
-390984
-390988
-390993
-391001
-391011
-391023
-391028
-391019
-391001
-390986
-390986
-390986
-390977
-390978
-390990
-390990
-390973
-390970
-390966
-390950
-390929
-390905
-390881
-390858
-390834
-390810
-390788
-390767
-390750
-390735
-390719
-390696
-390655
-390590
-390509
-390438
-390388
-390358
-390351
-390357
-390363
-390360
-390350
-390331
-390300
-390257
-390211
-390173
-390147
-390130
-390114
-390092
-390065
-390037
-390012
-389993
-389971
-389932
-389857
-389750
-389660
-389614
-389595
-389583
-389570
-389559
-389548
-389537
-389526
-389516
-389496
-389454
-389375
-389266
-389148
-389047
-388980
-388943
-388926
-388915
-388899
-388908
-388905
-388897
-388885
-388871
-388857
-388843
-388828
-388809
-388784
-388751
-388711
-388673
-388645
-388629
-388619
-388609
-388598
-388585
-388569
-388548
-388516
-388468
-388405
-388346
-388305
-388272
-388242
-388219
-388226
-388261
-388282
-388280
-388268
-388257
-388250
-388242
-388231
-388216
-388202
-388193
-388187
-388180
-388169
-388148
-388108
-388053
-387998
-387962
-387945
-387935
-387929
-387924
-387915
-387903
-387889
-387876
-387862
-387839
-387807
-387776
-387756
-387746
-387741
-387734
-387724
-387714
-387702
-387687
-387669
-387653
-387643
-387637
-387630
-387620
-387623
-387628
-387631
-387631
-387631
-387632
-387632
-387633
-387635
-387636
-387638
-387640
-387641
-387642
-387643
-387644
-387645
-387645
-387645
-387645
-387644
-387645
-387645
-387643
-387639
-387638
-387639
-387641
-387640
-387639
-387640
-387639
-387639
-387637
-387635
-387632
-387631
-387629
-387628
-387626
-387626
-387627
-396025
-396025
-396026
-396030
-396034
-396039
-396049
-396059
-396065
-396063
-396055
-396048
-396040
-396011
-395993
-396000
-396020
-396026
-396012
-396014
-396011
-395994
-395976
-395962
-395945
-395924
-395897
-395862
-395820
-395785
-395764
-395752
-395742
-395720
-395670
-395590
-395507
-395449
-395411
-395383
-395385
-395404
-395419
-395416
-395407
-395392
-395366
-395325
-395276
-395235
-395208
-395190
-395175
-395155
-395126
-395091
-395059
-395034
-395011
-394968
-394886
-394778
-394698
-394664
-394651
-394641
-394629
-394616
-394603
-394588
-394574
-394557
-394527
-394468
-394379
-394280
-394191
-394117
-394059
-394017
-393991
-393974
-393956
-393962
-393958
-393948
-393934
-393919
-393905
-393891
-393877
-393860
-393835
-393800
-393759
-393723
-393699
-393685
-393675
-393663
-393650
-393635
-393617
-393595
-393563
-393515
-393461
-393418
-393388
-393353
-393313
-393304
-393319
-393347
-393352
-393343
-393327
-393313
-393303
-393293
-393282
-393268
-393255
-393246
-393240
-393233
-393219
-393195
-393157
-393107
-393061
-393032
-393017
-393004
-392991
-392985
-392975
-392960
-392945
-392932
-392917
-392895
-392867
-392838
-392817
-392805
-392797
-392789
-392779
-392769
-392759
-392744
-392727
-392712
-392699
-392685
-392674
-392653
-392672
-392686
-392690
-392691
-392691
-392692
-392694
-392696
-392698
-392701
-392702
-392703
-392702
-392702
-392701
-392701
-392700
-392700
-392700
-392700
-392700
-392701
-392700
-392698
-392695
-392694
-392696
-392697
-392696
-392695
-392695
-392695
-392694
-392693
-392690
-392687
-392685
-392683
-392681
-392678
-392680
-392682
-401108
-401106
-401106
-401106
-401105
-401103
-401097
-401094
-401094
-401100
-401109
-401120
-401119
-401091
-401076
-401080
-401089
-401088
-401080
-401081
-401082
-401075
-401067
-401058
-401045
-401022
-400988
-400942
-400891
-400854
-400835
-400825
-400813
-400787
-400731
-400646
-400571
-400524
-400493
-400463
-400474
-400496
-400515
-400507
-400494
-400481
-400464
-400432
-400387
-400341
-400307
-400285
-400268
-400248
-400219
-400182
-400147
-400118
-400088
-400034
-399941
-399836
-399771
-399745
-399734
-399725
-399716
-399704
-399690
-399674
-399653
-399623
-399571
-399488
-399395
-399318
-399262
-399216
-399172
-399134
-399107
-399087
-399071
-399064
-399053
-399039
-399022
-399005
-398990
-398975
-398960
-398942
-398918
-398884
-398845
-398812
-398791
-398778
-398768
-398755
-398738
-398718
-398696
-398668
-398634
-398594
-398555
-398527
-398508
-398482
-398449
-398453
-398472
-398483
-398463
-398443
-398424
-398406
-398392
-398380
-398368
-398354
-398340
-398331
-398326
-398317
-398302
-398277
-398240
-398195
-398156
-398133
-398124
-398111
-398093
-398091
-398078
-398059
-398040
-398022
-398004
-397984
-397963
-397942
-397921
-397905
-397891
-397880
-397870
-397860
-397849
-397835
-397822
-397811
-397796
-397773
-397768
-397744
-397772
-397787
-397790
-397792
-397795
-397800
-397804
-397806
-397807
-397808
-397808
-397806
-397804
-397800
-397797
-397794
-397794
-397793
-397792
-397792
-397794
-397794
-397794
-397792
-397790
-397789
-397789
-397790
-397790
-397788
-397788
-397788
-397787
-397785
-397783
-397780
-397778
-397776
-397774
-397768
-397771
-397775
-406230
-406222
-406216
-406212
-406209
-406204
-406190
-406175
-406170
-406174
-406187
-406212
-406230
-406220
-406210
-406199
-406187
-406179
-406177
-406174
-406175
-406184
-406190
-406187
-406173
-406147
-406107
-406055
-406006
-405974
-405957
-405945
-405932
-405905
-405852
-405771
-405697
-405655
-405634
-405616
-405631
-405642
-405642
-405628
-405612
-405600
-405594
-405577
-405542
-405497
-405455
-405421
-405395
-405367
-405331
-405292
-405256
-405224
-405184
-405119
-405029
-404944
-404891
-404864
-404850
-404842
-404835
-404824
-404805
-404775
-404728
-404666
-404592
-404512
-404444
-404399
-404370
-404346
-404318
-404288
-404263
-404243
-404225
-404208
-404191
-404172
-404153
-404133
-404114
-404096
-404078
-404059
-404037
-404008
-403973
-403942
-403923
-403911
-403902
-403889
-403870
-403844
-403815
-403786
-403756
-403722
-403687
-403661
-403648
-403644
-403636
-403643
-403659
-403663
-403630
-403601
-403570
-403544
-403523
-403507
-403490
-403473
-403457
-403447
-403443
-403438
-403427
-403405
-403369
-403323
-403283
-403262
-403257
-403251
-403237
-403235
-403222
-403198
-403170
-403144
-403123
-403109
-403097
-403082
-403062
-403039
-403018
-403003
-402993
-402984
-402975
-402966
-402957
-402951
-402943
-402924
-402931
-402923
-402937
-402938
-402936
-402937
-402941
-402947
-402948
-402948
-402946
-402944
-402942
-402940
-402938
-402935
-402930
-402927
-402925
-402924
-402924
-402924
-402925
-402926
-402925
-402924
-402922
-402921
-402920
-402920
-402920
-402918
-402917
-402918
-402918
-402916
-402914
-402911
-402909
-402907
-402905
-402901
-402902
-402908
-411383
-411372
-411363
-411359
-411356
-411352
-411345
-411331
-411322
-411324
-411335
-411359
-411381
-411383
-411370
-411346
-411318
-411306
-411310
-411315
-411316
-411326
-411337
-411334
-411318
-411288
-411246
-411200
-411165
-411141
-411124
-411109
-411093
-411065
-411010
-410930
-410859
-410822
-410813
-410813
-410816
-410807
-410788
-410775
-410761
-410747
-410745
-410742
-410722
-410685
-410639
-410590
-410544
-410501
-410459
-410420
-410385
-410347
-410298
-410233
-410166
-410110
-410068
-410037
-410013
-409999
-409987
-409967
-409929
-409870
-409795
-409724
-409664
-409615
-409575
-409546
-409526
-409507
-409487
-409465
-409444
-409427
-409410
-409392
-409374
-409353
-409330
-409305
-409279
-409256
-409235
-409216
-409197
-409172
-409140
-409111
-409091
-409081
-409072
-409061
-409044
-409017
-408985
-408955
-408927
-408895
-408860
-408832
-408821
-408829
-408845
-408851
-408850
-408839
-408816
-408791
-408760
-408731
-408706
-408682
-408656
-408632
-408613
-408602
-408595
-408591
-408586
-408569
-408534
-408487
-408447
-408426
-408419
-408418
-408417
-408409
-408394
-408366
-408332
-408301
-408279
-408268
-408263
-408253
-408231
-408202
-408176
-408161
-408153
-408147
-408143
-408139
-408133
-408128
-408129
-408135
-408147
-408148
-408152
-408151
-408143
-408134
-408128
-408123
-408120
-408118
-408116
-408114
-408112
-408110
-408109
-408107
-408104
-408102
-408099
-408098
-408097
-408096
-408095
-408094
-408093
-408092
-408091
-408089
-408088
-408088
-408087
-408086
-408085
-408086
-408086
-408084
-408082
-408080
-408078
-408075
-408074
-408077
-408076
-408079
-416561
-416557
-416554
-416551
-416547
-416543
-416536
-416525
-416518
-416520
-416532
-416548
-416570
-416575
-416552
-416509
-416476
-416471
-416485
-416502
-416511
-416517
-416515
-416506
-416491
-416461
-416419
-416384
-416368
-416358
-416345
-416326
-416301
-416260
-416193
-416112
-416049
-416020
-416011
-416015
-415998
-415979
-415962
-415954
-415939
-415925
-415921
-415920
-415907
-415878
-415834
-415778
-415720
-415668
-415627
-415594
-415561
-415520
-415468
-415410
-415358
-415319
-415287
-415257
-415226
-415197
-415164
-415121
-415062
-414992
-414925
-414875
-414840
-414809
-414779
-414750
-414725
-414704
-414684
-414665
-414646
-414629
-414615
-414602
-414590
-414574
-414553
-414526
-414494
-414462
-414436
-414416
-414398
-414375
-414345
-414316
-414296
-414284
-414274
-414265
-414253
-414233
-414203
-414169
-414136
-414101
-414064
-414036
-414023
-414026
-414052
-414043
-414028
-414017
-414009
-413989
-413967
-413946
-413927
-413904
-413875
-413841
-413814
-413796
-413784
-413777
-413774
-413761
-413732
-413690
-413651
-413628
-413613
-413604
-413616
-413609
-413589
-413557
-413525
-413498
-413474
-413463
-413468
-413461
-413437
-413403
-413377
-413363
-413357
-413352
-413348
-413349
-413347
-413345
-413351
-413378
-413390
-413392
-413398
-413394
-413384
-413369
-413356
-413346
-413340
-413336
-413332
-413328
-413324
-413321
-413319
-413317
-413315
-413313
-413311
-413309
-413306
-413304
-413302
-413300
-413299
-413297
-413296
-413294
-413293
-413293
-413292
-413292
-413291
-413291
-413290
-413289
-413288
-413286
-413284
-413282
-413280
-413283
-413285
-413284
-421771
-421777
-421780
-421781
-421777
-421770
-421759
-421747
-421740
-421742
-421751
-421766
-421788
-421797
-421769
-421725
-421695
-421696
-421709
-421720
-421734
-421742
-421738
-421730
-421720
-421691
-421647
-421617
-421611
-421611
-421606
-421590
-421559
-421506
-421424
-421337
-421279
-421251
-421240
-421236
-421206
-421192
-421183
-421173
-421157
-421142
-421126
-421114
-421102
-421078
-421038
-420984
-420927
-420882
-420851
-420826
-420798
-420763
-420717
-420659
-420604
-420560
-420527
-420497
-420465
-420425
-420377
-420322
-420263
-420202
-420147
-420106
-420076
-420050
-420022
-419993
-419965
-419942
-419921
-419901
-419881
-419861
-419846
-419835
-419827
-419817
-419804
-419785
-419755
-419716
-419682
-419656
-419635
-419611
-419583
-419554
-419533
-419521
-419511
-419503
-419495
-419482
-419458
-419421
-419378
-419334
-419295
-419269
-419257
-419253
-419270
-419250
-419238
-419236
-419230
-419215
-419202
-419190
-419174
-419154
-419125
-419089
-419053
-419027
-419011
-419001
-418998
-418989
-418967
-418933
-418897
-418871
-418852
-418839
-418846
-418839
-418817
-418789
-418765
-418743
-418722
-418713
-418717
-418711
-418688
-418652
-418621
-418606
-418600
-418595
-418590
-418595
-418603
-418606
-418607
-418638
-418652
-418656
-418655
-418645
-418634
-418623
-418613
-418608
-418604
-418600
-418594
-418586
-418578
-418571
-418566
-418562
-418559
-418556
-418554
-418551
-418549
-418546
-418544
-418542
-418541
-418540
-418538
-418537
-418535
-418535
-418535
-418535
-418534
-418532
-418532
-418531
-418529
-418528
-418527
-418526
-418525
-418523
-418527
-418526
-427025
-427034
-427043
-427051
-427050
-427037
-427018
-426999
-426990
-426990
-426999
-427013
-427032
-427044
-427034
-427014
-426992
-426987
-426984
-426975
-426976
-426985
-426987
-426990
-426992
-426972
-426936
-426911
-426903
-426899
-426893
-426878
-426848
-426794
-426711
-426620
-426556
-426525
-426512
-426502
-426471
-426458
-426452
-426440
-426422
-426398
-426363
-426336
-426320
-426300
-426264
-426213
-426165
-426136
-426119
-426101
-426078
-426048
-426008
-425953
-425892
-425838
-425798
-425766
-425732
-425690
-425641
-425592
-425543
-425491
-425436
-425388
-425351
-425319
-425291
-425264
-425238
-425216
-425199
-425182
-425162
-425139
-425119
-425104
-425094
-425087
-425079
-425066
-425043
-425006
-424965
-424929
-424899
-424871
-424843
-424817
-424798
-424788
-424783
-424777
-424770
-424759
-424736
-424696
-424643
-424594
-424560
-424542
-424534
-424528
-424530
-424511
-424500
-424496
-424490
-424485
-424479
-424470
-424453
-424427
-424391
-424353
-424320
-424295
-424278
-424268
-424262
-424256
-424241
-424213
-424180
-424152
-424132
-424123
-424121
-424111
-424091
-424070
-424051
-424035
-424020
-424012
-424009
-423999
-423978
-423942
-423905
-423886
-423880
-423878
-423874
-423880
-423893
-423901
-423904
-423927
-423931
-423930
-423920
-423915
-423907
-423901
-423899
-423897
-423895
-423891
-423885
-423876
-423866
-423857
-423849
-423844
-423839
-423835
-423833
-423830
-423827
-423824
-423823
-423822
-423821
-423820
-423818
-423816
-423815
-423814
-423814
-423814
-423814
-423811
-423810
-423810
-423808
-423807
-423806
-423807
-423808
-423806
-423809
-423808
-432321
-432332
-432346
-432360
-432365
-432346
-432313
-432286
-432274
-432274
-432282
-432294
-432304
-432311
-432319
-432322
-432321
-432316
-432299
-432272
-432257
-432258
-432269
-432279
-432287
-432282
-432271
-432254
-432239
-432220
-432203
-432185
-432153
-432105
-432041
-431964
-431893
-431849
-431830
-431816
-431786
-431770
-431763
-431748
-431725
-431688
-431640
-431603
-431584
-431564
-431528
-431483
-431447
-431431
-431419
-431402
-431380
-431352
-431313
-431260
-431199
-431145
-431106
-431076
-431045
-431005
-430958
-430909
-430861
-430808
-430750
-430699
-430660
-430627
-430598
-430571
-430546
-430527
-430513
-430501
-430484
-430461
-430434
-430414
-430401
-430396
-430390
-430378
-430355
-430317
-430272
-430230
-430195
-430165
-430138
-430116
-430100
-430093
-430090
-430085
-430077
-430062
-430034
-429991
-429943
-429902
-429875
-429861
-429854
-429851
-429842
-429814
-429796
-429798
-429799
-429797
-429792
-429781
-429758
-429720
-429679
-429648
-429626
-429606
-429588
-429573
-429563
-429558
-429547
-429525
-429495
-429468
-429448
-429438
-429433
-429424
-429406
-429388
-429372
-429362
-429354
-429348
-429336
-429322
-429301
-429264
-429223
-429202
-429198
-429200
-429203
-429209
-429217
-429224
-429233
-429235
-429226
-429227
-429219
-429221
-429217
-429215
-429215
-429214
-429212
-429210
-429205
-429197
-429189
-429180
-429172
-429164
-429157
-429152
-429148
-429145
-429143
-429140
-429139
-429138
-429137
-429136
-429135
-429133
-429131
-429130
-429130
-429130
-429130
-429128
-429127
-429126
-429124
-429123
-429124
-429125
-429128
-429132
-429129
-429125
-437659
-437668
-437681
-437699
-437703
-437683
-437649
-437626
-437619
-437617
-437616
-437613
-437603
-437594
-437601
-437623
-437651
-437649
-437628
-437598
-437574
-437569
-437589
-437598
-437595
-437595
-437596
-437598
-437581
-437550
-437529
-437514
-437484
-437443
-437399
-437348
-437288
-437234
-437198
-437172
-437141
-437119
-437107
-437090
-437063
-437023
-436974
-436933
-436908
-436881
-436843
-436805
-436778
-436763
-436748
-436729
-436706
-436677
-436639
-436590
-436534
-436483
-436444
-436415
-436387
-436353
-436309
-436255
-436194
-436127
-436066
-436029
-436006
-435977
-435952
-435928
-435902
-435880
-435865
-435853
-435837
-435812
-435782
-435759
-435746
-435741
-435735
-435720
-435691
-435652
-435611
-435574
-435540
-435508
-435481
-435460
-435447
-435442
-435438
-435430
-435414
-435390
-435362
-435332
-435301
-435269
-435240
-435222
-435213
-435206
-435189
-435154
-435132
-435142
-435147
-435145
-435138
-435121
-435088
-435044
-435009
-434990
-434976
-434961
-434942
-434922
-434906
-434899
-434888
-434868
-434842
-434816
-434795
-434782
-434774
-434767
-434757
-434744
-434733
-434726
-434725
-434716
-434696
-434675
-434649
-434611
-434571
-434552
-434553
-434562
-434572
-434577
-434577
-434578
-434568
-434545
-434533
-434552
-434564
-434570
-434569
-434567
-434565
-434564
-434563
-434562
-434560
-434556
-434551
-434545
-434538
-434528
-434517
-434508
-434502
-434498
-434495
-434493
-434491
-434490
-434489
-434489
-434488
-434486
-434485
-434484
-434483
-434483
-434482
-434482
-434480
-434479
-434477
-434476
-434476
-434479
-434482
-434488
-434483
-434478
-443029
-443030
-443034
-443040
-443038
-443030
-443023
-443022
-443020
-443011
-442994
-442970
-442942
-442922
-442926
-442959
-442991
-442989
-442968
-442942
-442914
-442902
-442919
-442917
-442902
-442899
-442913
-442930
-442910
-442884
-442878
-442875
-442851
-442816
-442778
-442740
-442701
-442659
-442617
-442577
-442538
-442505
-442483
-442462
-442435
-442399
-442358
-442319
-442288
-442254
-442215
-442178
-442150
-442126
-442105
-442086
-442063
-442037
-442006
-441965
-441916
-441864
-441819
-441785
-441756
-441723
-441673
-441604
-441525
-441456
-441413
-441398
-441386
-441358
-441338
-441324
-441303
-441278
-441258
-441240
-441217
-441187
-441155
-441131
-441118
-441116
-441110
-441095
-441071
-441039
-441004
-440967
-440926
-440887
-440857
-440840
-440830
-440825
-440816
-440802
-440779
-440756
-440739
-440725
-440706
-440678
-440647
-440621
-440604
-440593
-440577
-440550
-440529
-440530
-440532
-440526
-440514
-440490
-440452
-440414
-440387
-440372
-440362
-440351
-440338
-440322
-440305
-440288
-440269
-440248
-440225
-440201
-440178
-440160
-440146
-440140
-440139
-440137
-440131
-440126
-440124
-440110
-440083
-440055
-440028
-439993
-439956
-439936
-439944
-439963
-439976
-439978
-439973
-439966
-439941
-439909
-439900
-439927
-439948
-439957
-439958
-439956
-439954
-439952
-439953
-439953
-439953
-439950
-439947
-439943
-439939
-439932
-439921
-439908
-439896
-439889
-439885
-439882
-439881
-439880
-439879
-439878
-439877
-439876
-439875
-439874
-439873
-439873
-439872
-439871
-439870
-439868
-439866
-439864
-439862
-439863
-439865
-439868
-439866
-439863
-448435
-448422
-448405
-448388
-448377
-448378
-448403
-448432
-448433
-448415
-448388
-448362
-448336
-448318
-448319
-448339
-448356
-448354
-448339
-448315
-448286
-448264
-448255
-448235
-448214
-448222
-448260
-448280
-448262
-448250
-448258
-448262
-448249
-448224
-448189
-448153
-448125
-448096
-448061
-448021
-447977
-447933
-447899
-447872
-447843
-447807
-447771
-447740
-447713
-447680
-447640
-447598
-447558
-447519
-447490
-447472
-447455
-447435
-447410
-447378
-447335
-447285
-447237
-447196
-447159
-447111
-447042
-446959
-446884
-446835
-446815
-446812
-446801
-446776
-446757
-446749
-446735
-446711
-446685
-446658
-446628
-446597
-446569
-446545
-446529
-446532
-446528
-446517
-446499
-446476
-446443
-446397
-446342
-446294
-446266
-446252
-446246
-446241
-446230
-446213
-446195
-446180
-446169
-446156
-446136
-446107
-446074
-446046
-446026
-446016
-446007
-445991
-445971
-445960
-445952
-445938
-445916
-445884
-445851
-445824
-445804
-445791
-445780
-445772
-445766
-445755
-445740
-445719
-445696
-445675
-445653
-445629
-445605
-445582
-445564
-445555
-445557
-445560
-445560
-445557
-445553
-445534
-445504
-445477
-445454
-445422
-445386
-445359
-445362
-445391
-445409
-445409
-445404
-445394
-445374
-445351
-445350
-445368
-445380
-445385
-445386
-445384
-445381
-445379
-445380
-445382
-445381
-445378
-445374
-445371
-445368
-445364
-445358
-445347
-445334
-445322
-445314
-445310
-445307
-445306
-445305
-445304
-445304
-445303
-445302
-445301
-445300
-445299
-445298
-445297
-445296
-445294
-445291
-445288
-445285
-445283
-445282
-445281
-445280
-445279
-453886
-453858
-453822
-453787
-453765
-453772
-453814
-453850
-453849
-453827
-453804
-453785
-453766
-453755
-453759
-453767
-453771
-453765
-453749
-453720
-453694
-453685
-453649
-453607
-453589
-453620
-453670
-453683
-453671
-453661
-453659
-453654
-453651
-453645
-453626
-453597
-453573
-453549
-453519
-453482
-453438
-453393
-453354
-453323
-453289
-453251
-453217
-453192
-453171
-453145
-453106
-453058
-453006
-452959
-452923
-452903
-452885
-452866
-452843
-452816
-452780
-452734
-452688
-452646
-452602
-452541
-452463
-452383
-452320
-452283
-452269
-452263
-452254
-452242
-452221
-452205
-452188
-452166
-452140
-452111
-452082
-452056
-452033
-452009
-451993
-451993
-451988
-451976
-451961
-451940
-451906
-451853
-451791
-451746
-451724
-451714
-451710
-451703
-451693
-451679
-451666
-451654
-451639
-451619
-451591
-451556
-451523
-451497
-451479
-451472
-451470
-451460
-451444
-451427
-451407
-451382
-451350
-451316
-451291
-451274
-451260
-451247
-451235
-451227
-451220
-451208
-451195
-451179
-451164
-451152
-451138
-451117
-451090
-451060
-451034
-451019
-451015
-451015
-451016
-451016
-451015
-451005
-450979
-450956
-450936
-450909
-450879
-450849
-450833
-450849
-450873
-450880
-450876
-450867
-450854
-450843
-450844
-450850
-450853
-450853
-450852
-450849
-450847
-450846
-450847
-450846
-450845
-450841
-450837
-450833
-450830
-450827
-450823
-450816
-450806
-450795
-450786
-450780
-450776
-450771
-450769
-450767
-450767
-450766
-450765
-450764
-450763
-450762
-450761
-450760
-450758
-450755
-450751
-450747
-450744
-450741
-450740
-450738
-450737
-450737
-459359
-459338
-459306
-459273
-459248
-459254
-459286
-459303
-459297
-459278
-459261
-459244
-459227
-459227
-459239
-459245
-459236
-459217
-459202
-459175
-459142
-459141
-459115
-459076
-459065
-459093
-459125
-459130
-459117
-459097
-459070
-459054
-459054
-459063
-459068
-459064
-459051
-459031
-459004
-458965
-458919
-458871
-458834
-458806
-458778
-458743
-458708
-458681
-458658
-458630
-458586
-458536
-458491
-458452
-458417
-458389
-458364
-458338
-458312
-458283
-458246
-458203
-458168
-458142
-458107
-458048
-457971
-457888
-457821
-457776
-457745
-457725
-457719
-457719
-457714
-457689
-457664
-457644
-457624
-457602
-457578
-457554
-457533
-457513
-457498
-457490
-457480
-457468
-457453
-457428
-457388
-457332
-457279
-457245
-457228
-457222
-457219
-457209
-457196
-457183
-457172
-457159
-457139
-457111
-457074
-457036
-457003
-456979
-456964
-456962
-456967
-456958
-456943
-456927
-456905
-456876
-456842
-456809
-456783
-456767
-456753
-456740
-456726
-456715
-456706
-456696
-456687
-456679
-456675
-456676
-456670
-456654
-456632
-456598
-456558
-456528
-456514
-456509
-456508
-456508
-456507
-456511
-456502
-456481
-456461
-456441
-456424
-456402
-456377
-456372
-456389
-456401
-456397
-456387
-456376
-456367
-456363
-456361
-456359
-456356
-456354
-456352
-456351
-456351
-456349
-456346
-456343
-456339
-456336
-456333
-456330
-456328
-456324
-456318
-456309
-456299
-456293
-456289
-456285
-456280
-456273
-456269
-456266
-456265
-456264
-456262
-456261
-456261
-456260
-456258
-456255
-456250
-456246
-456242
-456239
-456237
-456236
-456237
-456237
-456237
-464818
-464818
-464815
-464808
-464800
-464801
-464806
-464802
-464786
-464769
-464761
-464756
-464741
-464736
-464742
-464740
-464721
-464698
-464693
-464678
-464643
-464628
-464617
-464602
-464595
-464599
-464607
-464604
-464586
-464554
-464511
-464487
-464484
-464498
-464527
-464555
-464556
-464544
-464518
-464475
-464421
-464373
-464340
-464320
-464302
-464276
-464244
-464210
-464173
-464129
-464082
-464044
-464015
-463986
-463955
-463924
-463893
-463860
-463823
-463782
-463736
-463698
-463679
-463671
-463653
-463611
-463543
-463451
-463361
-463294
-463240
-463202
-463195
-463199
-463219
-463204
-463175
-463153
-463138
-463122
-463100
-463077
-463058
-463045
-463034
-463021
-463008
-462991
-462964
-462926
-462882
-462838
-462805
-462783
-462770
-462762
-462759
-462751
-462737
-462723
-462708
-462691
-462667
-462632
-462591
-462552
-462521
-462502
-462493
-462495
-462499
-462489
-462474
-462461
-462444
-462422
-462395
-462363
-462331
-462305
-462284
-462265
-462246
-462232
-462224
-462219
-462217
-462217
-462221
-462226
-462220
-462207
-462194
-462170
-462131
-462092
-462065
-462051
-462043
-462038
-462035
-462038
-462042
-462033
-462013
-461995
-461984
-461976
-461960
-461955
-461957
-461959
-461949
-461937
-461927
-461920
-461914
-461908
-461903
-461898
-461894
-461891
-461890
-461889
-461886
-461883
-461879
-461875
-461872
-461870
-461869
-461866
-461863
-461856
-461846
-461836
-461831
-461828
-461826
-461823
-461818
-461810
-461804
-461799
-461797
-461795
-461794
-461792
-461790
-461787
-461784
-461781
-461778
-461775
-461772
-461769
-461767
-461772
-461774
-461774
-470253
-470263
-470281
-470306
-470341
-470356
-470350
-470331
-470309
-470294
-470296
-470303
-470292
-470274
-470258
-470241
-470224
-470213
-470208
-470202
-470197
-470186
-470177
-470168
-470156
-470143
-470131
-470118
-470095
-470057
-470007
-469974
-469969
-469987
-470032
-470072
-470079
-470066
-470039
-470000
-469955
-469914
-469884
-469866
-469852
-469834
-469805
-469763
-469712
-469664
-469630
-469606
-469582
-469555
-469525
-469492
-469456
-469415
-469368
-469318
-469273
-469243
-469228
-469218