/*--------------------------------*- C++ -*----------------------------------*\
  =========                 |
  \\      /  F ield         | OpenFOAM: The Open Source CFD Toolbox
   \\    /   O peration     | Website:  https://openfoam.org
    \\  /    A nd           | Version:  8
     \\/     M anipulation  |
\*---------------------------------------------------------------------------*/
FoamFile
{
    version     2.0;
    format      ascii;
    class       volScalarField;
    location    "900";
    object      p_rgh;
}
// * * * * * * * * * * * * * * * * * * * * * * * * * * * * * * * * * * * * * //

dimensions      [1 -1 -2 0 0 0 0];

internalField   nonuniform List<scalar> 
20000
(
-373600
-373601
-373603
-373605
-373607
-373610
-373613
-373613
-373604
-373588
-373575
-373566
-373561
-373579
-373596
-373562
-373520
-373537
-373569
-373583
-373574
-373558
-373529
-373490
-373454
-373429
-373415
-373407
-373402
-373398
-373392
-373383
-373367
-373339
-373294
-373231
-373159
-373095
-373047
-373014
-372991
-372973
-372953
-372925
-372886
-372844
-372810
-372787
-372773
-372763
-372751
-372733
-372707
-372677
-372654
-372642
-372642
-372637
-372623
-372581
-372464
-372301
-372199
-372170
-372164
-372162
-372162
-372160
-372156
-372151
-372144
-372130
-372102
-372044
-371945
-371814
-371683
-371586
-371537
-371520
-371511
-371495
-371499
-371493
-371509
-371510
-371504
-371494
-371477
-371456
-371436
-371419
-371399
-371371
-371330
-371279
-371238
-371217
-371208
-371204
-371198
-371185
-371158
-371114
-371059
-371006
-370964
-370936
-370916
-370897
-370875
-370854
-370845
-370848
-370853
-370855
-370854
-370852
-370849
-370843
-370834
-370820
-370806
-370794
-370784
-370776
-370763
-370739
-370696
-370640
-370588
-370554
-370537
-370528
-370521
-370514
-370505
-370498
-370491
-370480
-370460
-370426
-370389
-370363
-370349
-370341
-370336
-370332
-370325
-370314
-370295
-370271
-370252
-370239
-370231
-370224
-370222
-370222
-370223
-370224
-370224
-370225
-370226
-370227
-370229
-370230
-370231
-370233
-370235
-370237
-370238
-370239
-370240
-370241
-370242
-370242
-370242
-370243
-370242
-370239
-370238
-370239
-370243
-370244
-370241
-370225
-370239
-370238
-370238
-370238
-370237
-370235
-370232
-370230
-370228
-370227
-370226
-370226
-370225
-370225
-373561
-373565
-373569
-373572
-373572
-373574
-373577
-373579
-373574
-373559
-373543
-373530
-373484
-373528
-373607
-373543
-373470
-373507
-373577
-373570
-373543
-373521
-373492
-373454
-373419
-373393
-373377
-373369
-373365
-373360
-373354
-373344
-373325
-373295
-373250
-373192
-373123
-373056
-373004
-372970
-372949
-372935
-372922
-372902
-372871
-372832
-372791
-372760
-372739
-372724
-372709
-372689
-372662
-372635
-372613
-372602
-372611
-372607
-372580
-372535
-372427
-372276
-372171
-372136
-372127
-372123
-372124
-372122
-372117
-372116
-372111
-372095
-372075
-372031
-371942
-371804
-371655
-371549
-371499
-371485
-371488
-371470
-371513
-371468
-371492
-371474
-371464
-371452
-371434
-371414
-371393
-371372
-371349
-371321
-371284
-371243
-371206
-371183
-371170
-371166
-371161
-371148
-371123
-371085
-371036
-370985
-370939
-370902
-370873
-370848
-370822
-370799
-370797
-370808
-370817
-370819
-370818
-370817
-370813
-370806
-370795
-370780
-370765
-370755
-370747
-370739
-370727
-370703
-370658
-370597
-370542
-370510
-370497
-370492
-370489
-370483
-370475
-370463
-370452
-370438
-370417
-370386
-370352
-370326
-370311
-370302
-370295
-370290
-370284
-370274
-370258
-370239
-370223
-370210
-370199
-370183
-370177
-370180
-370184
-370186
-370186
-370188
-370189
-370191
-370191
-370192
-370194
-370196
-370197
-370199
-370200
-370201
-370202
-370203
-370204
-370204
-370205
-370208
-370206
-370198
-370197
-370198
-370209
-370213
-370223
-370189
-370213
-370201
-370200
-370200
-370198
-370196
-370194
-370192
-370190
-370189
-370189
-370188
-370187
-370187
-373487
-373496
-373502
-373506
-373504
-373508
-373511
-373514
-373511
-373499
-373485
-373460
-373309
-373385
-373545
-373526
-373451
-373464
-373555
-373520
-373476
-373447
-373420
-373387
-373354
-373326
-373306
-373294
-373286
-373279
-373271
-373259
-373238
-373208
-373165
-373109
-373039
-372967
-372910
-372875
-372858
-372855
-372854
-372843
-372824
-372794
-372755
-372714
-372679
-372651
-372629
-372609
-372586
-372561
-372537
-372523
-372536
-372532
-372492
-372443
-372355
-372231
-372129
-372081
-372064
-372055
-372047
-372040
-372035
-372042
-372043
-372021
-372000
-371963
-371887
-371761
-371613
-371497
-371437
-371413
-371403
-371395
-371531
-371382
-371398
-371391
-371381
-371367
-371350
-371333
-371315
-371293
-371268
-371237
-371201
-371163
-371132
-371110
-371096
-371092
-371087
-371074
-371054
-371025
-370985
-370935
-370880
-370827
-370787
-370758
-370728
-370677
-370702
-370740
-370753
-370754
-370750
-370745
-370739
-370731
-370718
-370702
-370688
-370679
-370674
-370666
-370654
-370631
-370588
-370527
-370470
-370437
-370423
-370421
-370420
-370413
-370402
-370388
-370374
-370361
-370345
-370319
-370285
-370256
-370240
-370228
-370217
-370211
-370204
-370196
-370186
-370170
-370153
-370138
-370120
-370098
-370092
-370097
-370105
-370109
-370110
-370112
-370114
-370115
-370116
-370117
-370119
-370120
-370122
-370124
-370125
-370126
-370127
-370128
-370129
-370129
-370131
-370138
-370133
-370123
-370119
-370122
-370141
-370139
-370130
-370109
-370123
-370124
-370124
-370124
-370123
-370121
-370118
-370116
-370115
-370114
-370113
-370112
-370111
-370111
-373391
-373403
-373409
-373398
-373402
-373414
-373436
-373434
-373420
-373415
-373415
-373328
-373234
-373515
-373577
-373555
-373457
-373349
-373441
-373431
-373379
-373333
-373303
-373277
-373252
-373227
-373205
-373183
-373161
-373142
-373127
-373115
-373099
-373073
-373029
-372964
-372884
-372813
-372761
-372728
-372717
-372731
-372753
-372753
-372736
-372709
-372674
-372629
-372582
-372543
-372516
-372500
-372485
-372462
-372432
-372407
-372407
-372407
-372364
-372315
-372235
-372126
-372034
-371988
-371970
-371957
-371943
-371931
-371923
-371929
-371932
-371906
-371878
-371831
-371750
-371639
-371520
-371419
-371351
-371314
-371292
-371279
-371407
-371272
-371277
-371271
-371260
-371246
-371232
-371217
-371200
-371181
-371155
-371122
-371082
-371044
-371016
-370997
-370984
-370980
-370974
-370962
-370945
-370922
-370889
-370840
-370776
-370718
-370678
-370649
-370604
-370377
-370468
-370654
-370672
-370657
-370643
-370633
-370629
-370622
-370607
-370590
-370575
-370569
-370566
-370555
-370542
-370519
-370480
-370424
-370370
-370335
-370320
-370319
-370315
-370306
-370293
-370277
-370261
-370248
-370234
-370212
-370181
-370151
-370133
-370121
-370109
-370100
-370091
-370084
-370076
-370062
-370042
-370023
-370003
-369973
-369964
-369961
-369982
-369994
-369998
-370000
-370002
-370003
-370005
-370006
-370007
-370009
-370010
-370012
-370013
-370015
-370016
-370016
-370016
-370016
-370023
-370029
-370022
-370014
-370011
-370012
-370024
-370020
-370010
-369994
-370005
-370009
-370011
-370011
-370010
-370008
-370006
-370004
-370002
-370000
-369999
-369997
-369997
-369997
-373237
-373243
-373241
-373239
-373254
-373281
-373351
-373430
-373475
-373398
-373267
-373169
-373148
-373460
-373421
-373234
-373178
-373202
-373268
-373326
-373271
-373176
-373136
-373118
-373098
-373078
-373057
-373027
-372989
-372955
-372938
-372930
-372918
-372892
-372840
-372759
-372678
-372622
-372583
-372530
-372507
-372558
-372627
-372632
-372610
-372581
-372543
-372494
-372439
-372396
-372375
-372368
-372357
-372330
-372295
-372257
-372241
-372230
-372198
-372151
-372066
-371955
-371873
-371846
-371848
-371836
-371814
-371801
-371797
-371790
-371773
-371744
-371709
-371647
-371554
-371452
-371360
-371285
-371226
-371184
-371155
-371134
-371152
-371125
-371126
-371117
-371103
-371088
-371075
-371062
-371046
-371027
-371002
-370967
-370925
-370888
-370863
-370845
-370834
-370828
-370820
-370808
-370791
-370765
-370731
-370682
-370627
-370585
-370559
-370539
-370432
-369978
-370032
-370389
-370572
-370529
-370500
-370485
-370482
-370479
-370463
-370444
-370429
-370428
-370428
-370407
-370386
-370362
-370323
-370274
-370228
-370200
-370191
-370193
-370174
-370169
-370153
-370133
-370114
-370096
-370079
-370059
-370034
-370009
-369989
-369975
-369964
-369954
-369944
-369935
-369925
-369910
-369893
-369876
-369854
-369809
-369789
-369690
-369817
-369847
-369854
-369857
-369858
-369859
-369861
-369863
-369866
-369868
-369870
-369870
-369870
-369869
-369868
-369866
-369864
-369866
-369878
-369881
-369872
-369868
-369867
-369866
-369865
-369865
-369863
-369852
-369848
-369856
-369861
-369861
-369861
-369859
-369856
-369854
-369851
-369849
-369847
-369842
-369844
-369847
-373037
-373018
-373014
-373022
-373037
-373095
-373264
-373415
-373467
-373444
-373392
-373243
-372890
-373058
-373014
-372976
-372984
-373002
-373071
-373218
-373184
-372994
-372905
-372909
-372904
-372891
-372867
-372827
-372781
-372748
-372733
-372731
-372716
-372682
-372622
-372537
-372465
-372429
-372392
-372163
-372148
-372303
-372504
-372482
-372446
-372426
-372397
-372338
-372275
-372225
-372194
-372180
-372167
-372143
-372111
-372072
-372039
-372015
-371986
-371931
-371836
-371733
-371674
-371682
-371713
-371698
-371654
-371633
-371618
-371596
-371566
-371529
-371474
-371392
-371298
-371216
-371155
-371106
-371060
-371021
-370992
-370972
-370962
-370953
-370943
-370927
-370909
-370893
-370880
-370868
-370852
-370831
-370805
-370771
-370731
-370697
-370674
-370655
-370644
-370637
-370625
-370611
-370590
-370560
-370523
-370481
-370442
-370418
-370425
-370321
-369930
-369813
-369881
-370377
-370461
-370359
-370319
-370298
-370290
-370287
-370275
-370258
-370250
-370258
-370264
-370227
-370190
-370163
-370127
-370082
-370043
-370021
-370031
-370041
-369947
-370002
-369983
-369954
-369927
-369903
-369881
-369865
-369850
-369832
-369811
-369793
-369778
-369766
-369756
-369746
-369735
-369721
-369709
-369702
-369684
-369577
-369527
-369033
-369571
-369682
-369681
-369681
-369684
-369688
-369692
-369694
-369695
-369696
-369695
-369694
-369692
-369688
-369684
-369681
-369679
-369681
-369691
-369694
-369688
-369685
-369683
-369681
-369679
-369678
-369677
-369673
-369657
-369662
-369673
-369675
-369674
-369672
-369669
-369667
-369665
-369664
-369664
-369640
-369653
-369663
-372820
-372777
-372765
-372769
-372783
-372813
-372853
-372900
-372920
-373001
-373188
-373146
-372790
-372706
-372744
-372745
-372746
-372757
-372831
-373045
-373089
-372922
-372722
-372712
-372705
-372680
-372640
-372590
-372541
-372506
-372495
-372503
-372492
-372457
-372397
-372315
-372249
-372229
-372124
-371703
-371822
-372021
-372394
-372306
-372233
-372250
-372271
-372185
-372089
-372033
-371990
-371958
-371932
-371904
-371868
-371830
-371795
-371763
-371722
-371657
-371568
-371486
-371443
-371458
-371498
-371470
-371413
-371390
-371376
-371343
-371288
-371218
-371142
-371063
-370996
-370947
-370916
-370885
-370854
-370822
-370797
-370779
-370767
-370748
-370728
-370707
-370685
-370663
-370645
-370631
-370617
-370596
-370570
-370539
-370504
-370472
-370448
-370428
-370422
-370414
-370399
-370376
-370350
-370320
-370288
-370254
-370220
-370207
-370240
-370049
-369696
-369730
-369824
-370420
-370275
-370157
-370110
-370080
-370060
-370046
-370034
-370022
-370016
-370035
-370084
-370045
-369970
-369936
-369903
-369858
-369815
-369786
-369831
-369723
-369557
-369780
-369766
-369733
-369699
-369667
-369641
-369630
-369627
-369616
-369596
-369573
-369551
-369536
-369525
-369517
-369508
-369500
-369497
-369510
-369450
-369076
-369199
-368561
-369298
-369507
-369480
-369474
-369477
-369481
-369481
-369480
-369478
-369477
-369476
-369475
-369473
-369470
-369465
-369461
-369459
-369460
-369464
-369471
-369470
-369465
-369462
-369459
-369457
-369456
-369455
-369452
-369436
-369431
-369446
-369452
-369451
-369449
-369447
-369445
-369445
-369448
-369451
-369344
-369412
-369454
-372670
-372533
-372517
-372522
-372541
-372538
-372522
-372488
-372470
-372504
-372676
-372818
-372606
-372496
-372490
-372470
-372452
-372460
-372557
-372779
-372803
-372558
-372466
-372452
-372432
-372399
-372354
-372305
-372266
-372236
-372216
-372223
-372219
-372189
-372132
-372052
-371988
-371990
-372015
-371579
-371966
-372232
-372294
-372013
-371883
-371929
-372115
-372060
-371888
-371806
-371751
-371701
-371654
-371611
-371569
-371531
-371496
-371458
-371407
-371342
-371276
-371228
-371207
-371201
-371191
-371156
-371126
-371104
-371073
-371017
-370935
-370853
-370787
-370739
-370697
-370671
-370655
-370649
-370614
-370589
-370565
-370551
-370534
-370507
-370483
-370459
-370432
-370404
-370377
-370355
-370341
-370327
-370303
-370275
-370242
-370213
-370191
-370170
-370164
-370158
-370143
-370117
-370084
-370055
-370030
-369999
-369965
-369940
-369971
-370171
-369604
-369728
-370136
-370327
-369906
-369902
-369868
-369837
-369812
-369789
-369764
-369741
-369729
-369749
-369821
-369854
-369771
-369683
-369640
-369594
-369547
-369509
-369625
-369710
-369413
-369502
-369488
-369457
-369424
-369389
-369355
-369351
-369364
-369358
-369337
-369307
-369281
-369266
-369257
-369252
-369249
-369250
-369253
-369282
-369362
-368582
-369052
-368462
-369217
-369320
-369264
-369245
-369236
-369231
-369227
-369224
-369222
-369220
-369219
-369219
-369217
-369215
-369211
-369208
-369206
-369206
-369209
-369216
-369216
-369210
-369204
-369200
-369198
-369196
-369195
-369194
-369185
-369165
-369170
-369199
-369191
-369189
-369188
-369188
-369192
-369200
-369228
-369076
-369108
-369221
-372502
-372258
-372224
-372219
-372241
-372250
-372256
-372199
-372190
-372221
-372324
-372509
-372454
-372306
-372191
-372130
-372082
-372112
-372216
-372500
-372453
-372235
-372147
-372120
-372109
-372080
-372033
-371992
-371967
-371944
-371933
-371938
-371920
-371876
-371807
-371726
-371673
-371684
-371738
-371449
-372166
-372249
-371909
-371548
-371476
-371505
-371842
-371946
-371793
-371599
-371484
-371403
-371335
-371280
-371238
-371204
-371171
-371130
-371073
-371015
-370974
-370965
-370955
-370930
-370886
-370839
-370797
-370753
-370702
-370640
-370565
-370510
-370471
-370441
-370415
-370394
-370382
-370361
-370323
-370292
-370271
-370267
-370262
-370226
-370204
-370177
-370152
-370121
-370086
-370053
-370037
-370030
-370011
-369980
-369947
-369916
-369890
-369866
-369853
-369855
-369849
-369829
-369799
-369768
-369740
-369708
-369671
-369642
-369635
-369939
-369307
-370070
-370082
-369809
-369490
-369574
-369567
-369549
-369531
-369509
-369480
-369446
-369419
-369404
-369449
-369577
-369549
-369414
-369343
-369297
-369256
-369221
-369361
-369575
-369240
-369193
-369179
-369148
-369121
-369062
-368977
-368984
-369065
-369065
-369043
-369009
-368981
-368959
-368938
-368935
-368946
-368964
-368974
-368998
-369113
-368314
-368915
-368474
-368870
-369097
-369006
-368980
-368963
-368953
-368947
-368942
-368938
-368933
-368930
-368928
-368926
-368922
-368919
-368916
-368915
-368917
-368923
-368929
-368925
-368915
-368908
-368904
-368902
-368900
-368898
-368898
-368894
-368872
-368852
-368918
-368893
-368890
-368889
-368889
-368897
-368905
-368904
-368794
-368794
-368958
-372193
-371889
-371849
-371859
-371889
-371947
-371969
-371909
-371881
-371891
-371962
-372140
-372342
-372233
-371920
-371644
-371473
-371486
-371704
-372125
-372245
-372088
-371835
-371733
-371807
-371793
-371697
-371571
-371580
-371624
-371653
-371649
-371606
-371542
-371456
-371371
-371320
-371324
-371311
-370946
-371958
-372136
-371460
-371202
-371121
-371167
-371599
-371831
-371672
-371414
-371236
-371105
-370999
-370932
-370896
-370870
-370845
-370808
-370759
-370700
-370655
-370637
-370626
-370601
-370553
-370494
-370435
-370380
-370328
-370276
-370226
-370183
-370160
-370142
-370103
-370062
-370033
-370010
-369975
-369930
-369905
-369924
-369944
-369956
-369939
-369877
-369820
-369803
-369774
-369733
-369704
-369693
-369677
-369647
-369609
-369575
-369547
-369523
-369507
-369513
-369522
-369510
-369484
-369447
-369407
-369365
-369326
-369298
-369268
-369176
-368921
-370007
-370065
-369415
-369152
-369214
-369226
-369217
-369205
-369187
-369158
-369121
-369085
-369062
-369067
-369192
-369282
-369126
-369016
-368967
-368928
-368907
-368969
-369052
-368902
-368880
-368856
-368839
-368830
-368699
-368454
-368405
-368717
-368741
-368720
-368684
-368651
-368625
-368595
-368571
-368555
-368638
-368660
-368680
-368575
-368031
-368718
-368511
-368829
-368735
-368675
-368656
-368645
-368640
-368637
-368632
-368625
-368617
-368608
-368601
-368594
-368587
-368581
-368579
-368586
-368597
-368601
-368598
-368589
-368580
-368575
-368571
-368568
-368566
-368564
-368563
-368562
-368550
-368531
-368585
-368561
-368558
-368556
-368555
-368560
-368571
-368554
-368387
-368479
-368624
-371729
-371525
-371485
-371509
-371545
-371630
-371624
-371511
-371418
-371408
-371431
-371589
-372115
-372162
-371528
-371013
-370736
-370868
-371220
-371643
-371906
-371935
-371856
-371676
-371633
-371463
-371017
-370819
-370965
-371216
-371365
-371344
-371266
-371187
-371096
-371001
-370937
-370925
-370868
-370562
-371124
-371556
-371042
-370878
-370801
-370862
-371313
-371593
-371387
-371091
-370904
-370773
-370670
-370624
-370606
-370602
-370575
-370510
-370431
-370355
-370297
-370255
-370241
-370224
-370187
-370130
-370079
-370039
-370002
-369945
-369877
-369822
-369788
-369763
-369724
-369680
-369649
-369635
-369608
-369564
-369539
-369527
-369519
-369539
-369578
-369521
-369463
-369443
-369414
-369372
-369336
-369313
-369292
-369259
-369222
-369187
-369161
-369142
-369131
-369149
-369159
-369144
-369116
-369074
-369021
-368972
-368934
-368908
-368862
-368671
-368586
-369594
-369966
-369004
-368783
-368842
-368861
-368853
-368839
-368816
-368781
-368741
-368708
-368688
-368696
-368798
-368951
-368813
-368667
-368607
-368566
-368552
-368573
-368613
-368570
-368544
-368513
-368509
-368526
-368422
-367962
-367898
-368405
-368391
-368362
-368324
-368286
-368265
-368250
-368198
-368015
-368200
-368306
-368329
-367706
-367918
-368455
-368483
-368716
-368261
-368280
-368281
-368282
-368286
-368285
-368280
-368271
-368261
-368249
-368238
-368227
-368218
-368210
-368208
-368221
-368233
-368229
-368219
-368213
-368209
-368205
-368202
-368199
-368197
-368195
-368193
-368191
-368186
-368184
-368195
-368191
-368190
-368188
-368186
-368188
-368199
-368183
-367925
-368131
-368258
-371219
-371122
-371140
-371201
-371265
-371346
-371260
-370966
-370884
-370877
-370914
-371092
-371710
-372159
-371862
-371356
-370524
-370591
-370881
-371047
-371192
-371492
-371129
-371209
-371396
-371128
-370740
-370495
-370589
-370917
-371093
-371040
-370902
-370786
-370702
-370616
-370536
-370486
-370421
-370231
-370430
-370796
-370656
-370532
-370441
-370406
-370628
-370942
-370769
-370548
-370402
-370291
-370224
-370293
-370404
-370400
-370297
-370172
-370064
-369976
-369900
-369862
-369859
-369874
-369853
-369804
-369748
-369694
-369628
-369554
-369478
-369414
-369376
-369352
-369319
-369273
-369240
-369227
-369217
-369180
-369149
-369123
-369096
-369076
-369090
-369088
-369047
-369026
-369005
-368967
-368920
-368888
-368859
-368833
-368796
-368755
-368720
-368724
-368742
-368753
-368745
-368724
-368690
-368644
-368591
-368536
-368488
-368464
-368439
-368327
-368375
-368952
-369366
-368575
-368395
-368453
-368467
-368449
-368426
-368391
-368353
-368325
-368308
-368305
-368324
-368397
-368522
-368454
-368316
-368218
-368174
-368149
-368167
-368214
-368252
-368227
-368101
-368053
-368084
-368032
-367548
-367565
-368011
-367969
-367953
-367920
-367879
-367855
-367843
-367796
-367458
-367600
-367784
-367759
-367711
-368340
-368496
-368027
-367932
-367808
-367838
-367862
-367908
-367920
-367900
-367883
-367872
-367862
-367853
-367846
-367839
-367830
-367818
-367812
-367816
-367821
-367812
-367806
-367804
-367804
-367800
-367796
-367794
-367792
-367790
-367786
-367782
-367780
-367782
-367786
-367785
-367784
-367782
-367781
-367781
-367789
-367796
-367623
-367801
-367826
-370641
-370672
-370807
-371009
-371313
-371159
-370563
-370186
-370168
-370267
-370431
-370788
-371474
-372033
-371809
-371178
-370361
-370386
-370555
-370568
-370543
-370565
-370398
-370948
-371431
-371376
-371205
-370443
-370337
-370582
-370769
-370740
-370549
-370349
-370258
-370198
-370132
-370064
-369982
-369876
-370002
-370288
-370307
-370167
-370062
-370012
-370033
-370112
-370026
-369902
-369793
-369697
-369662
-369873
-370159
-370065
-369856
-369719
-369626
-369547
-369489
-369486
-369559
-369602
-369551
-369423
-369304
-369215
-369140
-369073
-369014
-368986
-368982
-368931
-368880
-368838
-368801
-368780
-368761
-368731
-368706
-368679
-368648
-368624
-368613
-368609
-368598
-368582
-368553
-368511
-368471
-368437
-368410
-368383
-368351
-368290
-368230
-368297
-368325
-368312
-368286
-368251
-368220
-368183
-368142
-368095
-368057
-368037
-368026
-367990
-367964
-368104
-368276
-368049
-367987
-368026
-368023
-367999
-367964
-367924
-367899
-367893
-367894
-367892
-367887
-367906
-367995
-368044
-367957
-367834
-367772
-367741
-367757
-367838
-367928
-367920
-367635
-367483
-367480
-367499
-367240
-367262
-367410
-367423
-367480
-367462
-367424
-367385
-367326
-367238
-367018
-367165
-367348
-367298
-367902
-368348
-368443
-367685
-367379
-367392
-367405
-367428
-367460
-367449
-367433
-367431
-367428
-367424
-367424
-367425
-367424
-367414
-367399
-367385
-367376
-367369
-367360
-367355
-367355
-367358
-367355
-367352
-367352
-367350
-367344
-367335
-367331
-367334
-367340
-367343
-367343
-367342
-367340
-367339
-367338
-367335
-367327
-367288
-367330
-367339
-370141
-370228
-370503
-371146
-371444
-371116
-370252
-369625
-369657
-369816
-370027
-370339
-370866
-371344
-370799
-370002
-369882
-370043
-370227
-370247
-370246
-370209
-370556
-371363
-371605
-371456
-370692
-369902
-369960
-370163
-370401
-370469
-370222
-369849
-369733
-369712
-369679
-369632
-369583
-369542
-369628
-369830
-369870
-369753
-369645
-369569
-369521
-369483
-369407
-369303
-369209
-369151
-369194
-369521
-369795
-369651
-369395
-369242
-369170
-369112
-369073
-369071
-369134
-369172
-369078
-368897
-368756
-368657
-368570
-368504
-368460
-368553
-368652
-368409
-368348
-368357
-368329
-368301
-368272
-368246
-368218
-368186
-368155
-368131
-368113
-368115
-368108
-368091
-368065
-368034
-368002
-367965
-367927
-367889
-367859
-367779
-367616
-367772
-367846
-367819
-367757
-367713
-367691
-367693
-367692
-367663
-367625
-367599
-367578
-367557
-367543
-367550
-367554
-367536
-367529
-367542
-367532
-367501
-367462
-367426
-367410
-367417
-367433
-367437
-367421
-367422
-367491
-367611
-367568
-367414
-367315
-367277
-367266
-367326
-367427
-367478
-367303
-367078
-366988
-367006
-366956
-366880
-366748
-366772
-366913
-366922
-366886
-366795
-366647
-366613
-366635
-366822
-366928
-366901
-366911
-367306
-367376
-366944
-366937
-366950
-366953
-366950
-366947
-366929
-366936
-366949
-366952
-366955
-366962
-366975
-366979
-366964
-366943
-366921
-366904
-366892
-366883
-366877
-366875
-366878
-366871
-366866
-366872
-366869
-366862
-366854
-366851
-366857
-366863
-366864
-366864
-366862
-366861
-366858
-366855
-366848
-366833
-366820
-366836
-366844
-369633
-369759
-370204
-370988
-371366
-371125
-370049
-369209
-369344
-369486
-369641
-369901
-370170
-370272
-369723
-369404
-369413
-369614
-370095
-370353
-370206
-369926
-370914
-371345
-371505
-370891
-369764
-369416
-369492
-369631
-369988
-370344
-369940
-369454
-369250
-369211
-369274
-369273
-369244
-369226
-369251
-369314
-369304
-369201
-369099
-369027
-368994
-368975
-368932
-368843
-368749
-368682
-368709
-368959
-369173
-369077
-368907
-368800
-368780
-368756
-368693
-368619
-368591
-368576
-368474
-368300
-368157
-368042
-367961
-367887
-367784
-368084
-368235
-367632
-367653
-367855
-367842
-367796
-367760
-367724
-367691
-367661
-367641
-367617
-367528
-367607
-367605
-367586
-367566
-367545
-367508
-367461
-367403
-367356
-367316
-367187
-366997
-367206
-367301
-367260
-367145
-367075
-367110
-367176
-367221
-367217
-367185
-367153
-367121
-367091
-367075
-367054
-367035
-367020
-367011
-367004
-366987
-366959
-366921
-366896
-366882
-366887
-366913
-366943
-366987
-367022
-367093
-367120
-367020
-366877
-366792
-366744
-366710
-366690
-366705
-366765
-366783
-366728
-366637
-366607
-366612
-366447
-366059
-366092
-366288
-366169
-366057
-365863
-365673
-365992
-366269
-366410
-366449
-366441
-366424
-366448
-366485
-366439
-366436
-366442
-366442
-366440
-366421
-366374
-366385
-366437
-366453
-366462
-366473
-366489
-366491
-366472
-366446
-366425
-366405
-366390
-366379
-366372
-366368
-366366
-366359
-366352
-366357
-366344
-366337
-366338
-366341
-366345
-366347
-366349
-366350
-366349
-366346
-366342
-366336
-366324
-366304
-366297
-366306
-366319
-369308
-369427
-369647
-370111
-370516
-369654
-368617
-368730
-368920
-369069
-369340
-369651
-369742
-369495
-369104
-368899
-368961
-369345
-369986
-370262
-369838
-368659
-369346
-370174
-369929
-369112
-368818
-368866
-368925
-369105
-369857
-370375
-370195
-369694
-368992
-368657
-368819
-368858
-368848
-368830
-368791
-368755
-368690
-368598
-368522
-368476
-368497
-368541
-368498
-368375
-368254
-368171
-368123
-368150
-368272
-368313
-368267
-368278
-368342
-368331
-368227
-368096
-368013
-367970
-367883
-367687
-367491
-367376
-367267
-367163
-367238
-367684
-367710
-367043
-366882
-367364
-367425
-367343
-367250
-367192
-367158
-367177
-367213
-367023
-366688
-367112
-367166
-367109
-367076
-367022
-366971
-366908
-366840
-366785
-366721
-366499
-366396
-366613
-366714
-366686
-366613
-366555
-366601
-366666
-366685
-366674
-366661
-366652
-366600
-366568
-366596
-366515
-366489
-366471
-366452
-366428
-366405
-366378
-366370
-366356
-366352
-366349
-366362
-366464
-366602
-366576
-366507
-366459
-366373
-366312
-366269
-366222
-366178
-366139
-366117
-366125
-366175
-366225
-366226
-366159
-366274
-365804
-365295
-365377
-365715
-365362
-364964
-364518
-364381
-365200
-365811
-365912
-365922
-365914
-365901
-365900
-365907
-365881
-365866
-365871
-365880
-365866
-365830
-365746
-365811
-365926
-365942
-365935
-365933
-365941
-365951
-365935
-365908
-365885
-365867
-365850
-365839
-365831
-365826
-365822
-365817
-365813
-365808
-365798
-365791
-365789
-365790
-365794
-365798
-365803
-365802
-365800
-365796
-365791
-365784
-365773
-365758
-365736
-365746
-365756
-369347
-368640
-368286
-368105
-367982
-367719
-367934
-368213
-368358
-368493
-368822
-369139
-368955
-368515
-368300
-368321
-368493
-368954
-369642
-369902
-368819
-367777
-367868
-368092
-368114
-368092
-368139
-368178
-368177
-368529
-369868
-370378
-370298
-370022
-369173
-368124
-368219
-368268
-368207
-368144
-368103
-368097
-368098
-368079
-368020
-367950
-367898
-367872
-367813
-367740
-367660
-367585
-367542
-367541
-367578
-367598
-367594
-367636
-367685
-367648
-367573
-367481
-367435
-367454
-367394
-367175
-366991
-366851
-366733
-366714
-367364
-367850
-367916
-367668
-366336
-366646
-366910
-366956
-366825
-366698
-366664
-366716
-366789
-366433
-366027
-366648
-366649
-366526
-366472
-366421
-366369
-366303
-366247
-366208
-366135
-365832
-365838
-366091
-366171
-366149
-366104
-366083
-366080
-366064
-366036
-366009
-366002
-366001
-365871
-365863
-366135
-365949
-365893
-365885
-365865
-365837
-365804
-365788
-365792
-365803
-365804
-365795
-365805
-365979
-366206
-366065
-365832
-365787
-365777
-365783
-365742
-365683
-365633
-365585
-365543
-365525
-365536
-365565
-365588
-365598
-365881
-365719
-364931
-364784
-365286
-365010
-364516
-363864
-363530
-364147
-365218
-365382
-365367
-365353
-365341
-365336
-365334
-365319
-365312
-365308
-365306
-365297
-365277
-365199
-365288
-365381
-365367
-365350
-365344
-365350
-365359
-365344
-365316
-365297
-365281
-365269
-365260
-365257
-365253
-365248
-365241
-365234
-365230
-365224
-365211
-365201
-365206
-365215
-365220
-365218
-365215
-365211
-365208
-365203
-365198
-365189
-365169
-365157
-365134
-365168
-369957
-369422
-368542
-367672
-366949
-367081
-367445
-367638
-367731
-367852
-368167
-368393
-367943
-367608
-367584
-367601
-367694
-368170
-369215
-369024
-367104
-366701
-367101
-367310
-367379
-367416
-367446
-367473
-367494
-367766
-369093
-370070
-370011
-369684
-368549
-367624
-367642
-367593
-367460
-367373
-367332
-367357
-367474
-367588
-367550
-367367
-367198
-367105
-367055
-367026
-366998
-366987
-367008
-367022
-367003
-366968
-366928
-366896
-366862
-366809
-366774
-366752
-366824
-367008
-367002
-366698
-366462
-366292
-366160
-366027
-366035
-367210
-368010
-367339
-365882
-365808
-366132
-366317
-366309
-366145
-366085
-366200
-366354
-366016
-365535
-366015
-365974
-365871
-365821
-365765
-365700
-365647
-365613
-365596
-365489
-365100
-365233
-365524
-365577
-365545
-365508
-365483
-365458
-365422
-365378
-365335
-365305
-365272
-365004
-365150
-365559
-365352
-365216
-365255
-365253
-365236
-365217
-365188
-365155
-365133
-365118
-365114
-365158
-365384
-365694
-365440
-365216
-365174
-365202
-365280
-365218
-364998
-364997
-364981
-364949
-364920
-364903
-364896
-364900
-364923
-365267
-365804
-365111
-364330
-364721
-364662
-364508
-363714
-363218
-363596
-364285
-364811
-364739
-364721
-364706
-364709
-364731
-364737
-364723
-364710
-364702
-364694
-364668
-364619
-364701
-364757
-364730
-364713
-364709
-364722
-364742
-364727
-364696
-364676
-364661
-364649
-364643
-364640
-364639
-364637
-364630
-364621
-364613
-364604
-364590
-364575
-364580
-364591
-364594
-364593
-364589
-364586
-364584
-364581
-364575
-364561
-364519
-364528
-364538
-364540
-370404
-370192
-369897
-369106
-367276
-366779
-366934
-367028
-367077
-367243
-367572
-367923
-367243
-366931
-366855
-366845
-366881
-367414
-368883
-368453
-366622
-365964
-366143
-366469
-366656
-366727
-366756
-366780
-366825
-367028
-367858
-368905
-368745
-368028
-367081
-366935
-367005
-366920
-366758
-366658
-366611
-366616
-366771
-367015
-367004
-366716
-366505
-366403
-366343
-366311
-366332
-366413
-366468
-366423
-366343
-366278
-366230
-366180
-366107
-366041
-365986
-365973
-366221