/*--------------------------------*- C++ -*----------------------------------*\
  =========                 |
  \\      /  F ield         | OpenFOAM: The Open Source CFD Toolbox
   \\    /   O peration     | Website:  https://openfoam.org
    \\  /    A nd           | Version:  8
     \\/     M anipulation  |
\*---------------------------------------------------------------------------*/
FoamFile
{
    version     2.0;
    format      ascii;
    class       volScalarField;
    location    "900";
    object      rho;
}
// * * * * * * * * * * * * * * * * * * * * * * * * * * * * * * * * * * * * * //

dimensions      [1 -3 0 0 0 0 0];

internalField   nonuniform List<scalar> 
20000
(
1003.43
1003.41
1003.38
1003.49
1003.67
1003.8
1003.83
1003.83
1003.82
1003.8
1003.78
1003.8
1004.26
1003.44
1002.03
1007.69
1016.98
1013.38
1006.37
1002.38
1003.35
1003.76
1003.81
1003.82
1003.82
1003.8
1003.74
1003.64
1003.57
1003.59
1003.62
1003.61
1003.63
1003.68
1003.76
1003.84
1003.87
1003.86
1003.82
1003.75
1003.7
1003.72
1003.81
1003.91
1003.98
1004
1003.96
1003.9
1003.8
1003.72
1003.68
1003.68
1003.75
1003.9
1004.15
1004.35
1003.15
1002.93
1003.68
1003.83
1003.85
1003.87
1003.89
1003.89
1003.87
1003.88
1003.5
1003.29
1003.53
1003.52
1003.67
1003.86
1003.89
1003.88
1003.87
1003.86
1003.85
1003.85
1003.82
1003.71
1004.99
1009.96
1008.89
1010.33
1004.06
1003.24
1003.68
1003.76
1003.81
1003.83
1003.83
1003.83
1003.81
1003.83
1003.84
1003.85
1003.85
1003.88
1003.98
1003.87
1003.77
1003.81
1003.83
1003.84
1003.84
1003.84
1003.84
1003.84
1003.83
1003.85
1003.9
1003.92
1003.89
1003.88
1003.89
1003.9
1003.86
1003.79
1003.77
1003.8
1003.82
1003.82
1003.82
1003.82
1003.81
1003.82
1003.83
1003.84
1003.85
1003.85
1003.85
1003.85
1003.85
1003.83
1003.8
1003.68
1003.56
1003.71
1003.88
1003.93
1003.91
1003.87
1003.85
1003.86
1003.89
1003.96
1004.02
1003.95
1003.9
1003.87
1003.84
1003.82
1003.74
1003.59
1003.62
1004.3
1004.73
1004.63
1004.22
1003.92
1003.82
1003.78
1003.78
1003.82
1003.83
1003.85
1003.85
1003.85
1003.86
1003.86
1003.85
1003.84
1003.84
1003.84
1003.84
1003.85
1003.84
1003.63
1003.77
1004.1
1004.02
1003.97
1003.72
1003.27
1003.87
1008.56
1003.64
1003.79
1003.86
1003.87
1003.87
1003.87
1003.86
1003.85
1003.85
1003.84
1003.84
1003.85
1003.87
1003.87
1011.04
1010.71
1010.41
1010.48
1010.86
1011.27
1011.43
1011.46
1011.42
1011.38
1011.29
1011.37
1016.41
1013.24
1005.69
1013.76
1022.81
1017.6
1007.56
1007.51
1010.38
1011.26
1011.44
1011.5
1011.53
1011.53
1011.48
1011.34
1011.19
1011.16
1011.07
1010.98
1011.03
1011.17
1011.35
1011.48
1011.52
1011.52
1011.47
1011.37
1011.23
1011.12
1011.23
1011.51
1011.67
1011.73
1011.69
1011.63
1011.53
1011.45
1011.36
1011.36
1011.51
1011.83
1012.14
1012.02
1009.63
1009.21
1011.01
1011.47
1011.54
1011.57
1011.6
1011.63
1011.65
1011.67
1011.13
1010.86
1011.02
1010.51
1010.43
1011.33
1011.54
1011.55
1011.54
1011.54
1011.53
1011.53
1011.52
1011.37
1010.72
1013.69
1007.42
1013.72
1008.92
1010.67
1011.21
1011.32
1011.43
1011.5
1011.52
1011.5
1011.49
1011.49
1011.5
1011.52
1011.54
1011.64
1011.88
1011.59
1011.33
1011.4
1011.45
1011.48
1011.49
1011.51
1011.52
1011.51
1011.49
1011.5
1011.72
1012.06
1011.74
1011.53
1011.53
1011.53
1011.45
1011.32
1011.32
1011.41
1011.47
1011.48
1011.48
1011.45
1011.43
1011.46
1011.5
1011.52
1011.52
1011.53
1011.53
1011.52
1011.48
1011.37
1011.2
1011.1
1011.08
1011.35
1011.58
1011.64
1011.56
1011.47
1011.44
1011.44
1011.5
1011.8
1012.11
1012
1011.78
1011.62
1011.51
1011.4
1011.22
1010.99
1011.17
1012.58
1013.21
1012.75
1012.01
1011.64
1011.6
1011.49
1011.5
1011.45
1011.5
1011.5
1011.53
1011.53
1011.55
1011.55
1011.53
1011.5
1011.5
1011.5
1011.52
1011.54
1011.48
1010.99
1011.28
1012.09
1012.15
1012.01
1010.79
1010.19
1008.84
1014.13
1009.93
1011.49
1011.56
1011.56
1011.56
1011.56
1011.55
1011.54
1011.53
1011.52
1011.53
1011.56
1011.58
1011.59
1018.36
1017.71
1017.42
1017.28
1017.91
1018.04
1018.31
1018.56
1018.81
1018.81
1018.54
1019.23
1031.14
1026.8
1014.7
1016.38
1022.56
1020.81
1012.13
1014.41
1017.52
1018.74
1019.05
1019.14
1019.2
1019.22
1019.21
1019.14
1019.05
1018.93
1018.76
1018.6
1018.66
1018.84
1019.01
1019.07
1019.08
1019.09
1019.12
1019.14
1019.05
1018.73
1018.56
1018.78
1019.06
1019.21
1019.24
1019.23
1019.2
1019.19
1019.15
1019.2
1019.37
1019.64
1019.83
1019.52
1017.12
1016.41
1018.23
1018.99
1019.13
1019.19
1019.21
1019.22
1019.19
1019.19
1019.16
1019.14
1019.02
1017.87
1017.28
1018.47
1018.91
1019.08
1019.15
1019.18
1019.19
1019.2
1019.2
1019.24
1019.57
1020.11
1008.25
1020.83
1018.76
1018.87
1018.91
1018.95
1019.04
1019.14
1019.19
1019.19
1019.18
1019.18
1019.18
1019.18
1019.22
1019.4
1019.63
1019.25
1018.94
1018.94
1019.01
1019.09
1019.15
1019.18
1019.18
1019.17
1019.14
1019.07
1019.46
1021.92
1020.01
1018.75
1018.91
1019.03
1018.99
1018.86
1018.86
1019.01
1019.12
1019.15
1019.14
1019.07
1018.99
1019.07
1019.15
1019.18
1019.18
1019.18
1019.17
1019.15
1019.04
1018.75
1018.53
1018.67
1018.93
1019.13
1019.24
1019.23
1019.11
1019.02
1019
1018.98
1018.98
1019.28
1019.76
1019.79
1019.6
1019.3
1019.04
1018.94
1018.93
1018.98
1019.59
1020.99
1021.2
1020.48
1019.78
1019.5
1019.41
1019.36
1019.27
1019.21
1019.17
1019.18
1019.18
1019.19
1019.19
1019.18
1019.16
1019.14
1019.15
1019.17
1019.2
1019.21
1019.05
1018.48
1018.79
1019.66
1019.93
1019.63
1017.96
1018.01
1018.66
1020.89
1019.29
1019.26
1019.22
1019.21
1019.2
1019.2
1019.2
1019.2
1019.2
1019.21
1019.23
1019.25
1019.27
1019.27
1024.66
1024.02
1023.75
1024.56
1024.7
1024.42
1023.73
1024.58
1025.71
1025.44
1024.4
1028.56
1034.07
1017.69
1013.51
1014.87
1021.24
1027.62
1021.25
1021.61
1024.44
1026.2
1026.67
1026.81
1026.9
1026.96
1026.91
1026.82
1026.74
1026.66
1026.51
1026.33
1026.38
1026.58
1026.69
1026.69
1026.65
1026.65
1026.74
1026.96
1027.14
1026.71
1025.76
1025.59
1026.03
1026.48
1026.71
1026.81
1026.86
1026.9
1026.98
1026.92
1026.88
1026.97
1027.17
1026.93
1025.52
1024.36
1025.58
1026.18
1026.44
1026.58
1026.66
1026.7
1026.67
1026.7
1026.78
1026.8
1026.65
1025.65
1024.89
1025.77
1026.29
1026.5
1026.66
1026.76
1026.81
1026.83
1026.85
1026.9
1027.17
1027.28
1018.89
1027.34
1026.81
1026.68
1026.66
1026.64
1026.66
1026.73
1026.8
1026.84
1026.85
1026.85
1026.85
1026.86
1026.92
1027.09
1027.21
1026.89
1026.6
1026.51
1026.57
1026.71
1026.8
1026.82
1026.83
1026.81
1026.75
1026.53
1027.42
1039.28
1034.38
1025.6
1025.81
1026.52
1026.65
1026.59
1026.37
1026.36
1026.6
1026.75
1026.76
1026.59
1026.4
1026.64
1026.81
1026.84
1026.84
1026.83
1026.82
1026.78
1026.61
1026.15
1026.01
1026.21
1026.51
1026.7
1026.8
1026.87
1026.84
1026.76
1026.7
1026.62
1026.54
1026.69
1027.01
1027.14
1027.15
1026.94
1026.69
1026.65
1026.76
1026.94
1027.56
1028.92
1029.06
1028.66
1027.59
1027.22
1027.08
1026.99
1026.88
1026.84
1026.8
1026.8
1026.8
1026.81
1026.81
1026.8
1026.78
1026.78
1026.8
1026.84
1026.88
1026.88
1026.52
1026.1
1026.51
1027
1027.16
1026.96
1026.1
1026.22
1026.89
1027.91
1027.2
1026.94
1026.87
1026.85
1026.85
1026.85
1026.85
1026.85
1026.85
1026.86
1026.88
1026.93
1026.93
1026.93
1032.43
1032.17
1032.29
1032.53
1032.06
1031.08
1028.34
1025.22
1023.46
1026.81
1032.43
1036.5
1037.13
1021.68
1022.61
1031.42
1034.85
1034.08
1030.42
1027.85
1030.22
1033.76
1034.8
1034.95
1035.07
1035.03
1034.79
1034.53
1034.41
1034.32
1034.15
1033.96
1034.03
1034.25
1034.35
1034.34
1034.26
1034.17
1034.23
1035.33
1036.49
1035.07
1032.59
1032.26
1032.81
1033.43
1034
1034.36
1034.65
1034.74
1034.45
1033.96
1033.76
1034.07
1034.37
1034.5
1033.78
1033.14
1033.54
1033.76
1033.89
1033.99
1034.06
1033.76
1033.09
1033.19
1033.66
1033.64
1033.22
1032.91
1032.99
1033.53
1033.78
1033.89
1034.07
1034.24
1034.36
1034.41
1034.45
1034.49
1034.62
1034.76
1033.18
1034.66
1034.41
1034.38
1034.37
1034.35
1034.3
1034.29
1034.36
1034.44
1034.48
1034.49
1034.49
1034.51
1034.59
1034.77
1034.82
1034.58
1034.3
1034.16
1034.14
1034.31
1034.42
1034.46
1034.46
1034.44
1034.26
1033.57
1036.63
1056.76
1055.04
1040.1
1032.06
1033.57
1034.2
1034.24
1033.9
1033.61
1033.83
1034.04
1034.11
1033.76
1033.5
1034.1
1034.45
1034.49
1034.49
1034.47
1034.46
1034.4
1034.13
1033.47
1033.74
1033.68
1033.95
1034.16
1034.37
1034.61
1034.68
1034.57
1034.42
1034.29
1034.24
1034.33
1034.46
1034.53
1034.57
1034.54
1034.49
1034.5
1034.52
1034.57
1034.99
1036.39
1036.81
1040.33
1035.46
1034.73
1034.58
1034.49
1034.44
1034.44
1034.44
1034.43
1034.43
1034.44
1034.44
1034.43
1034.42
1034.42
1034.46
1034.52
1034.59
1034.5
1033.98
1033.8
1034.23
1034.43
1034.47
1034.43
1034.32
1034.27
1034.44
1035
1035.13
1034.73
1034.51
1034.48
1034.48
1034.48
1034.48
1034.48
1034.48
1034.49
1034.5
1034.59
1034.6
1034.53
1040.53
1041.15
1041.32
1041.03
1040.42
1038.19
1031.74
1025.98
1024.11
1025.15
1027.4
1033.35
1046.39
1039.12
1040.18
1041.74
1041.79
1041.09
1038.24
1032.85
1034.11
1040.92
1043.89
1043.46
1043.11
1042.74
1042.4
1042.17
1042.01
1041.83
1041.68
1041.37
1041.49
1041.81
1041.94
1041.94
1041.81
1041.43
1041.65
1049.05
1049.96
1045.05
1038.29
1038.85
1039.67
1039.96
1040.38
1041.41
1042.04
1042.2
1042.1
1041.79
1041.63
1041.82
1041.92
1041.99
1041.88
1041.71
1041.7
1041.75
1041.76
1041.75
1041.51
1040.25
1038.69
1038.92
1040.17
1040.53
1040.57
1040.8
1041.14
1041.41
1041.48
1041.47
1041.5
1041.67
1041.87
1041.97
1042.04
1042.09
1042.15
1042.16
1041.95
1042.03
1042.01
1042.03
1042.08
1042.06
1041.96
1041.86
1041.88
1042.01
1042.09
1042.11
1042.12
1042.15
1042.26
1042.47
1042.5
1042.29
1042.09
1041.89
1041.83
1041.89
1042.02
1042.07
1042.08
1041.95
1041.01
1043.87
1057.15
1061.63
1059.79
1041.84
1037.96
1041.03
1041.78
1041.9
1041.68
1041.37
1041.35
1041.44
1041.23
1040.6
1040.2
1041.26
1042.02
1042.13
1042.09
1042.09
1042.09
1042.06
1041.33
1040.48
1043.31
1041.2
1041.45
1041.78
1042.07
1042.33
1042.45
1042.32
1042.12
1041.98
1041.98
1042.05
1042.09
1042.11
1042.11
1042.12
1042.12
1042.12
1042.1
1041.95
1042.06
1045.17
1046.82
1064.24
1045.35
1041.79
1041.95
1042
1042.03
1042.05
1042.06
1042.06
1042.06
1042.06
1042.06
1042.05
1042.05
1042.06
1042.09
1042.12
1042.14
1042.05
1041.66
1041.55
1041.8
1041.96
1042.02
1042.03
1042.02
1042.02
1042.05
1042.26
1042.82
1042.57
1042.15
1042.1
1042.1
1042.1
1042.1
1042.1
1042.09
1042.07
1041.99
1042.66
1042.26
1042.06
1047.91
1049.01
1049.18
1048.96
1048.44
1047.31
1045.62
1043.67
1042.89
1040.46
1035.01
1037.12
1048.87
1051.18
1049.66
1049.28
1048.88
1048.3
1045.89
1039.1
1037.75
1043.25
1049.74
1049.94
1049.75
1049.71
1049.68
1049.65
1049.65
1049.73
1049.54
1048.92
1048.83
1049.11
1049.32
1049.35
1049.1
1048.42
1051.05
1063.69
1060.41
1054.52
1042.84
1045.16
1046.95
1046.05
1045.18
1047.34
1049.26
1049.62
1049.63
1049.6
1049.58
1049.57
1049.56
1049.53
1049.5
1049.49
1049.53
1049.56
1049.53
1049.44
1049.11
1047.81
1046.07
1046.71
1048.29
1048.66
1048.5
1048.58
1048.84
1049.12
1049.19
1049.14
1049.09
1049.21
1049.29
1049.49
1049.59
1049.67
1049.67
1049.61
1049.43
1049.49
1049.57
1049.66
1049.74
1049.8
1049.77
1049.62
1049.49
1049.56
1049.7
1049.76
1049.76
1049.8
1049.94
1050.2
1050.1
1049.95
1049.83
1049.73
1049.66
1049.68
1049.72
1049.73
1049.7
1049.3
1047.87
1053.7
1064.52
1063.67
1061.24
1042.67
1046.2
1048.96
1049.48
1049.6
1049.59
1049.49
1049.34
1049.17
1048.89
1047.96
1046.32
1047.39
1049.37
1049.78
1049.67
1049.64
1049.73
1049.96
1048.39
1051.61
1056.39
1049.3
1049.35
1049.63
1049.82
1050.03
1050.19
1050.08
1049.78
1049.65
1049.67
1049.69
1049.7
1049.71
1049.71
1049.7
1049.69
1049.65
1049.51
1048.9
1050.53
1061.67
1058.02
1077.78
1055.08
1048.59
1049.35
1049.56
1049.62
1049.65
1049.7
1049.72
1049.73
1049.7
1049.68
1049.64
1049.63
1049.64
1049.65
1049.67
1049.67
1049.63
1049.46
1049.27
1049.33
1049.49
1049.58
1049.63
1049.64
1049.64
1049.66
1049.76
1050.23
1050.34
1049.83
1049.68
1049.7
1049.7
1049.69
1049.68
1049.61
1049.46
1049.29
1052.55
1050.44
1049.29
1052.37
1055.75
1055.95
1055.69
1055.1
1055.1
1055.33
1055.86
1056.14
1055.24
1050.89
1047.66
1054.03
1057.06
1056.89
1056.77
1056.48
1055.94
1053.42
1047.54
1046.89
1053.82
1056.63
1056.93
1057.02
1057.13
1057.21
1057.28
1057.38
1057.57
1057.64
1057.06
1056.71
1056.78
1056.83
1056.83
1056.64
1055.59
1054.66
1066.51
1056.06
1048.58
1046.37
1053.69
1056.82
1055.19
1050.09
1051.5
1055.63
1056.86
1057.08
1057.13
1057.15
1057.16
1057.15
1057.13
1057.12
1057.13
1057.16
1057.18
1057.14
1056.93
1056.37
1055.66
1055.3
1055.88
1056.38
1056.4
1056.23
1056.13
1056.33
1056.62
1056.79
1056.78
1056.84
1056.75
1056.62
1056.28
1056.67
1056.78
1056.86
1056.75
1056.76
1057.02
1057.18
1057.27
1057.37
1057.44
1057.5
1057.43
1057.26
1057.14
1057.26
1057.35
1057.37
1057.35
1057.45
1057.71
1057.64
1057.5
1057.44
1057.43
1057.45
1057.42
1057.34
1057.3
1057.28
1057.2
1056.06
1050.85
1066.69
1063.49
1052.39
1046.88
1057.7
1057.12
1057.21
1057.25
1057.26
1057.25
1057.23
1057.16
1056.99
1056.15
1054
1052.99
1055.11
1057.06
1057.26
1057.22
1057.4
1057.88
1054.55
1052.2
1060.26
1057.6
1057.6
1057.67
1057.63
1057.76
1058.08
1057.87
1057.4
1057.28
1057.27
1057.28
1057.29
1057.3
1057.31
1057.3
1057.25
1057.13
1056.86
1055.96
1053.81
1075.16
1062.72
1078.79
1058.39
1055.54
1056.85
1057.13
1057.19
1057.22
1057.24
1057.27
1057.26
1057.25
1057.22
1057.19
1057.19
1057.21
1057.24
1057.26
1057.25
1057.21
1057.08
1056.89
1056.87
1057.02
1057.14
1057.2
1057.23
1057.23
1057.23
1057.26
1057.49
1058
1057.83
1057.08
1057.28
1057.29
1057.27
1057.22
1057.04
1056.75
1055.94
1060.16
1059.27
1056.28
1056.76
1062.53
1063.25
1063.29
1062.68
1062.36
1062.07
1063.17
1063.2
1062.52
1060.33
1056.28
1058.12
1061.82
1063.99
1064.44
1064.77
1063.95
1061.79
1055.39
1056.76
1062.1
1064.18
1064.62
1064.51
1064.48
1064.6
1064.76
1064.96
1065.28
1065.23
1064.66
1064.49
1064.57
1064.61
1064.59
1064.37
1063.39
1061.9
1068.94
1051.31
1048.85
1056.62
1065.08
1066.46
1065.42
1057.26
1054.71
1058.08
1062.05
1063.74
1064.35
1064.57
1064.66
1064.69
1064.69
1064.7
1064.72
1064.82
1064.81
1064.56
1063.84
1063.32
1063.17
1063.49
1063.94
1064.16
1064.16
1063.97
1063.79
1063.96
1064.1
1064.18
1064.18
1064.08
1063.88
1063.58
1063.57
1064.02
1064.29
1064.35
1064.03
1063.8
1064.36
1064.61
1064.85
1064.97
1065.06
1065.13
1065.15
1064.9
1064.6
1064.62
1064.81
1064.89
1064.92
1065.07
1065.38
1065.46
1065.18
1065.04
1065.05
1065.05
1064.97
1064.85
1064.78
1064.78
1064.8
1064.67
1057.43
1073.22
1054.7
1054.04
1060.34
1067.79
1065.31
1064.92
1064.86
1064.83
1064.83
1064.82
1064.82
1064.82
1064.75
1063.38
1060.14
1060.74
1063.67
1064.66
1064.76
1064.83
1065.11
1061.39
1056.03
1064.35
1065.33
1065.2
1065.17
1065.06
1065.81
1067.27
1066.84
1064.99
1064.83
1064.79
1064.79
1064.83
1065.04
1065.38
1065.35
1065
1064.58
1064.28
1063.67
1061.05
1080.86
1066.75
1077.37
1067.99
1062.49
1064.39
1064.69
1064.76
1064.77
1064.77
1064.79
1064.8
1064.81
1064.8
1064.79
1064.78
1064.82
1064.84
1064.84
1064.83
1064.73
1064.54
1064.33
1064.38
1064.58
1064.71
1064.78
1064.8
1064.81
1064.81
1064.81
1064.9
1065.43
1065.88
1064.28
1064.88
1064.92
1064.91
1064.86
1064.62
1064.39
1064.37
1067.09
1067.13
1063.16
1063.97
1070.6
1071.53
1071.34
1070.62
1069.22
1068.52
1069.55
1069.98
1069.8
1068.5
1064.99
1061.13
1063.67
1069.76
1074.74
1077.78
1077.52
1073.11
1064.33
1062.04
1065.58
1070.94
1072.96
1071.17
1070.82
1071.94
1074.01
1073.68
1072.75
1072.02
1071.75
1072.01
1072.25
1072.32
1072.29
1072.12
1071.47
1071.49
1079.25
1056.88
1052.76
1067.07
1072.41
1073.8
1072.47
1062.87
1057.63
1060.78
1065.79
1068.77
1070.42
1071.47
1071.95
1072.07
1072.07
1072.01
1072.06
1072.11
1072.14
1071.92
1071.36
1070.9
1070.78
1071.13
1071.54
1071.77
1071.78
1071.62
1071.44
1071.33
1071.36
1071.2
1071.03
1071.28
1071.53
1071.57
1071.54
1071.86
1072.4
1072.49
1071.67
1070.92
1070.43
1070.62
1071.74
1072.68
1072.64
1072.61
1072.65
1072.54
1072.23
1072.11
1072.25
1072.45
1072.58
1072.71
1072.96
1073.12
1072.82
1072.44
1072.43
1072.47
1072.46
1072.4
1072.36
1072.35
1072.4
1072.79
1074.65
1080.5
1056.77
1055.26
1069.16
1074.69
1073.04
1072.52
1072.43
1072.36
1072.31
1072.31
1072.33
1072.34
1072.28
1071.82
1068.92
1066.94
1070.07
1071.96
1072.3
1072.36
1072.25
1070.49
1068.43
1071.83
1072.14
1072.17
1071.95
1071.62
1073.97
1078.78
1079.63
1073.03
1072.36
1072.33
1072.32
1072.37
1072.62
1073.12
1073.55
1073.77
1072.08
1071.79
1071.44
1073.71
1086.03
1071.59
1076.13
1069.28
1071.07
1072.15
1072.31
1072.34
1072.33
1072.32
1072.33
1072.35
1072.36
1072.36
1072.37
1072.43
1072.48
1072.53
1072.51
1072.32
1072.04
1071.88
1071.9
1072.05
1072.21
1072.3
1072.35
1072.37
1072.39
1072.4
1072.41
1072.43
1072.69
1073.1
1071.88
1072.39
1072.43
1072.44
1072.44
1072.3
1072.05
1072.4
1075.92
1074.05
1070.91
1073.66
1077.79
1078.74
1078.43
1077.72
1075.81
1075.56
1077.4
1079
1079.2
1078.94
1076.15
1066.29
1065.62
1077.74
1087.34
1092.29
1089.64
1082.76
1074.36
1069.27
1068.88
1070.46
1074
1074.87
1077.79
1085.76
1089.12
1086.12
1081.17
1078.16
1078.29
1079.21
1079.7
1079.85
1079.93
1079.93
1079.57
1080.41
1086.16
1074.66
1066.01
1075.87
1078.82
1079.98
1078.31
1068.87
1062.93
1066.62
1071.97
1074.89
1076.44
1077.51
1077.85
1077.87
1077.61
1077.67
1078.37
1079.11
1079.52
1079.46
1079.24
1078.74
1078.42
1078.49
1078.79
1078.83
1078.64
1078.42
1078.5
1078.76
1078.91
1078.82
1078.71
1078.92
1079.24
1079.35
1079.19
1079.38
1079.9
1080.01
1079.8
1079.56
1078.87
1077.93
1078.9
1079.88
1080.01
1080.11
1080.22
1080.12
1079.87
1079.68
1079.79
1079.97
1080.14
1080.29
1080.45
1080.56
1080.1
1079.78
1079.85
1079.95
1079.97
1079.99
1080
1080.07
1080.22
1080.96
1084.57
1086.23
1066.3
1058.87
1077.46
1081.64
1080.39
1079.92
1079.88
1079.82
1079.77
1079.77
1079.79
1079.79
1079.69
1079.21
1077.03
1073.95
1076.51
1079.05
1079.69
1079.82
1079.56
1078.77
1077.81
1078.61
1078.92
1079.13
1078.8
1078.09
1079.81
1088.45
1089.54
1079.63
1079.72
1079.88
1079.92
1079.94
1079.98
1080.14
1081.11
1084.57
1081.11
1079.31
1079.02
1091.17
1087.49
1077.15
1076.6
1071.88
1080.59
1080.08
1079.95
1079.88
1079.78
1079.75
1079.77
1079.83
1079.86
1079.89
1079.92
1079.99
1080.07
1080.12
1080.1
1079.79
1079.5
1079.53
1079.67
1079.75
1079.8
1079.85
1079.9
1079.93
1079.94
1079.95
1079.96
1080
1080.11
1080.14
1079.87
1079.94
1079.95
1079.95
1079.95
1079.92
1079.71
1080.04
1085.01
1081.08
1078.58
1083.23
1085.13
1085.06
1084.24
1083.19
1081.42
1082.34
1087.09
1088.34
1088.45
1087.93
1085
1074.22
1066.38
1071.77
1080.82
1095.55
1094.26
1088.81
1085.41
1082.57
1077.28
1083.9
1082.67
1079.48
1084.15
1090.82
1094.88
1092.94
1086.8
1083.36
1083.98
1085.87
1087.06
1087.43
1087.58
1087.75
1087.86
1088.65
1091.78
1087.73
1080.96
1083.3
1085.26
1086.45
1086.43
1081.63
1075.4
1078.14
1081.7
1083.65
1084.82
1085.37
1083.86
1081.68
1081.44
1082.89
1084.6
1085.83
1086.45
1086.72
1086.43
1085.78
1084.99
1084.81
1084.99
1085.14
1085.22
1085.54
1085.92
1086.25
1086.48
1086.45
1086.3
1086.35
1086.7
1086.85
1086.74
1086.66
1087.11
1087.37
1087.41
1087.42
1087.4
1086.94
1086.87
1087.51
1087.66
1087.62
1087.62
1087.65
1087.49
1087.37
1087.3
1087.48
1087.81
1088.15
1087.97
1087.58
1087.3
1087.31
1087.42
1087.51
1087.56
1087.66
1087.91
1088.27
1088.45
1088.77
1090.7
1089.69
1078.95
1071.32
1085.37
1088.58
1087.52
1087.18
1087.29
1087.29
1087.24
1087.2
1087.15
1087.05
1086.76
1086.1
1084.53
1082.14
1083.26
1085.52
1086.86
1087.11
1087.06
1086.4
1085.4
1084.63
1084.91
1086.81
1087.35
1086.53
1087.26
1095.72
1095.3
1087.17
1087.67
1087.57
1087.51
1087.51
1087.56
1087.72
1088.58
1094.64
1092.21
1089.09
1089.65
1090.68
1079.56
1076.63
1084.96
1086.52
1088.73
1088.13
1087.67
1086.85
1086.63
1086.94
1087.21
1087.32
1087.36
1087.36
1087.34
1087.32
1087.34
1087.42
1087.45
1087.3
1087.18
1087.27
1087.34
1087.35
1087.34
1087.39
1087.44
1087.46
1087.47
1087.48
1087.52
1087.58
1087.62
1087.57
1087.48
1087.48
1087.47
1087.48
1087.48
1087.49
1087.38
1087.3
1090.44
1087.23
1086.71
1093.07
1092.69
1090.7
1087.69
1082.8
1084.99
1094.17
1099.95
1100.12
1098.47
1095.78
1089.89
1078.56
1069.3
1073.06
1083.72
1097.48
1097.05
1093.95
1093.25
1093.27
1092.81
1095.88
1087.04
1079.13
1080.02
1082.83
1095.29
1096.75
1092.24
1088.85
1089.08
1091.71
1094.3
1095.07
1095.2
1095.29
1095.55
1096.29
1097.59
1095.03
1090
1089.5
1091.51
1092.78
1092.93
1091.8
1089.84
1090.83
1092.42
1093.58
1094.52
1094.66
1090.96
1086.07
1087.28
1090.31
1092.07
1092.99
1093.47
1093.5
1092.71
1090.88
1089.71
1090.08
1091.62
1092.84
1093.41
1093.64
1093.65
1093.61
1093.45
1093.15
1093.52
1093.94
1094.23
1094.4
1094.39
1094.45
1094.76
1094.9
1094.93
1094.95
1094.97
1094.94
1094.91
1094.99
1095
1095.01
1095.06
1095.05
1095
1094.89
1094.8
1094.88
1095.54
1096.3
1095.12
1094.6
1094.68
1094.86
1095.04
1095.08
1095.18
1095.36
1095.6
1095.75
1095.78
1095.8
1096.28
1096.44
1093.58
1090.42
1094.27
1095.38
1094.7
1094.63
1094.75
1094.78
1094.72
1094.56
1094.33
1094.1
1093.88
1093.66
1093.02
1091.32
1090.4
1091.64
1093.31
1093.91
1093.99
1093.39
1091.86
1090.25
1090.26
1094.74
1097.02
1096.87
1096.46
1100.67
1100.15
1097.42
1096.87
1095.53
1095.19
1095.17
1095.48
1096.47
1098.05
1101.79
1099.47
1096.5
1097.33
1087.31
1079.66
1077.91
1090.59
1095.79
1095.68
1095.43
1095.03
1094.48
1094.64
1094.88
1094.91
1094.91
1094.9
1094.83
1094.72
1094.63
1094.63
1094.69
1094.76
1094.81
1094.87
1094.96
1095.01
1094.98
1094.92
1094.96
1094.99
1094.97
1094.99
1095.05
1095.18
1095.25
1095.19
1095.08
1095.02
1095.01
1094.99
1094.99
1095
1095.02
1095.1
1095.29
1096.03
1095.24
1095.04
1100.75
1099.43
1095.35
1085.74
1081.2
1086.04
1098.98
1108.43
1107.92
1105.38
1101.94
1096.86
1088.47
1080.95
1089.25
1101.77
1104.08
1101.61
1098.52
1097.82
1097.41
1097.78
1092.8
1080.58
1076.71
1078.92
1090.65
1102.84
1101.69
1098.21
1094.54
1093.47
1096.83
1101.92
1103.11
1102.84
1102.76
1102.84
1102.93
1102.96
1101.08
1097.52
1096.58
1098.04
1099.26
1099.86
1099.97
1099.96
1100.63
1101.68
1102.51
1102.85
1101.77
1096.47
1092
1093.89
1097.42
1099.33
1099.95
1100.21
1100.06
1099.3
1097.67
1096.57
1097.56
1099.8
1101.18
1101.63
1101.76
1101.71
1101.72
1100.09
1098.4
1101.66
1102.29
1101.92
1102.03
1102.08
1102.21
1102.34
1102.41
1102.43
1102.43
1102.43
1102.51
1102.44
1102.47
1102.5
1102.51
1102.51
1102.47
1102.45
1102.42
1102.39
1102.4
1103.35
1105.66
1103.23
1101.98
1102.16
1102.76
1103.08
1103.15
1102.9
1102.63
1102.66
1102.76
1102.77
1102.83
1102.97
1102.94
1102.43
1102.05
1102.34
1102.47
1102.2
1102.16
1102.25
1102.28
1102.25
1102.08
1101.76
1101.35
1101.13
1101.18
1100.91
1099.62
1097.55
1097.92
1099.93
1101.08
1101.28
1101.1
1099.92
1098.19
1097.32
1099.95
1103.32
1104.6
1104.24
1104.98
1105.9
1107.48
1106.71
1104.17
1103.5
1103.49
1104.56
1106.92
1107.71
1107.57
1104.78
1103.11
1103.41
1102.87
1096.44
1095.24
1102.16
1102.59
1102.54
1102.51
1102.51
1102.54
1102.78
1102.68
1102.49
1102.44
1102.36
1102.19
1101.94
1101.84
1101.95
1102.1
1102.22
1102.31
1102.38
1102.46
1102.51
1102.51
1102.45
1102.55
1102.61
1102.51
1102.54
1102.62
1102.73
1102.76
1102.67
1102.57
1102.53
1102.51
1102.52
1102.5
1102.51
1102.54
1102.65
1102.91
1103.15
1102.87
1102.71
1107.98
1106.01
1099.53
1088.27
1082.8
1086.21
1101.67
1113.9
1112.01
1109.75
1107.2
1103.18
1099.04
1097.34
1105.08
1109.85
1109.96
1107.1
1100.14
1096.17
1097.82
1101.45
1087.43
1081.09
1078.56
1087.29
1103.68
1108.84
1107.52
1105.41
1100.5
1095.55
1101.04
1107.52
1109.91
1109.95
1108.66
1108.26
1108.19
1107.88
1106.9
1105.4
1105.07
1106.13
1107.16
1107.66
1107.63
1107.45
1107.68
1108.47
1109.22
1109.58
1108.63
1104.58
1101.15
1102.26
1104.41
1105.62
1105.55
1105.44
1105.73
1106.07
1105.79
1105.43
1106.33
1108.1
1109.14
1109.59
1109.67
1110.03
1111.19
1106.93
1104.66
1112.78
1112.22
1109.27
1109.25
1109.57
1109.7
1109.83
1109.87
1109.85
1109.74
1109.75
1110.77
1109.7
1109.68
1109.78
1109.82
1109.79
1109.84
1109.86
1109.89
1109.9
1110.06
1111.68
1114.25
1111.25
1109.77
1110.1
1111.46
1112.24
1111.59
1110.47
1109.56
1109.21
1109.2
1109.26
1109.44
1109.69
1109.81
1109.87
1109.86
1109.91
1109.92
1109.84
1109.77
1109.71
1109.78
1109.74
1109.68
1109.41
1108.9
1108.37
1107.66
1106.99
1105.8
1105.12
1106.2
1107.93
1108.81
1109.14
1109.29
1109.24
1108.78
1107.8
1107.57
1108.39
1109.67
1110.05
1109.93
1111.99
1117.01
1116.16
1113.1
1114.31
1115.39
1117.73
1120.45
1116.37
1112.72
1110.75
1110.12
1110.1
1110.07
1109.4
1108.87
1109.76
1109.96
1109.97
1109.97
1109.96
1110.2
1110.83
1110.69
1109.99
1109.75
1109.58
1109.37
1109.09
1109.02
1109.23
1109.51
1109.67
1109.75
1109.81
1109.85
1109.88
1109.91
1109.92
1110
1110.09
1110.01
1110.18
1110.27
1110.25
1110.19
1110.12
1110.07
1110.04
1110.01
1109.98
1109.98
1110
1110.04
1110.18
1110.45
1110.54
1110.4
1110.2
1112.47
1110.53
1107.17
1100.61
1094.99
1106.41
1120.61
1119.59
1117.08
1114.83
1110.97
1106.62
1105.17
1108.29
1113.47
1116.29
1115.51
1110.39
1101.75
1097.73
1102.98
1118.36
1108.85
1097.41
1100.4
1111.54
1116.07
1115.62
1114.68
1112.18
1102.26
1095.37
1097.71
1104.22
1113.21
1117.23
1114.79
1113.95
1113.69
1113.44
1113.37
1113.25
1113.61
1114.4
1114.96
1115.06
1114.34
1113.42
1113.71
1114.99
1116.07
1116.53
1116.48
1115.5
1113.43
1112.61
1113
1112.6
1111.45
1111.24
1112.13
1113.26
1113.74
1113.76
1114.32
1116.1
1117.65
1118.11
1118.71
1119.59
1118.43
1112.48
1112.02
1120.63
1122.48
1115.92
1114.89
1115.69
1116.56
1116.94
1117.01
1116.43
1115.65
1117.84
1122.02
1116.46
1115.67
1116.27
1116.51
1116.94
1117.17
1117.3
1117.38
1117.5
1118.06
1120.84
1122.15
1119.21
1117.74
1117.93
1118.72
1119.32
1118.52
1117.4
1116.77
1116.47
1116.19
1115.98
1116.42
1116.74
1116.37
1117.29
1117.43
1117.43
1117.43
1117.41
1117.29
1117.21
1116.97
1116.94
1116.81
1116.67
1116.35
1114.9
1112.99
1113.17
1113.91
1114.34
1115.27
1115.91
1116.29
1116.63
1116.86
1116.98
1116.93
1116.62
1115.91
1115.26
1115.26
1116.14
1114.61
1120.66
1127.02
1125.63
1120.92
1125.21
1130.05
1135.53
1137.12
1126.56
1118.82
1117.6
1117.41
1117.4
1117.39
1117.26
1117.18
1117.62
1117.85
1117.79
1117.65
1117.8
1118.25
1119.34
1118.49
1116.97
1116.74
1116.78
1116.75
1116.6
1116.43
1116.59
1116.9
1117.11
1117.22
1117.28
1117.32
1117.34
1117.35
1117.36
1117.38
1117.42
1117.47
1117.6
1117.68
1117.69
1117.66
1117.6
1117.53
1117.46
1117.44
1117.43
1117.43
1117.44
1117.49
1117.6
1117.78
1118.04
1117.9
1117.76
1112.19
1120.66
1124.65
1126.47
1127.68
1131.01
1128.74
1125.5
1123.63
1121.74
1117.46
1113.33
1115.4
1120.84
1123.64
1123.46
1121.21
1115.29
1106.6
1103.06
1116.02
1128.89
1127.44
1124.19
1123.79
1124.4
1124.22
1123.81
1123.65
1119.05
1102.18
1095.68
1096.67
1100.18
1110.74
1123.66
1122.32
1121.46
1121.88
1122.18
1122.12
1121.61
1121.13
1121.02
1121.4
1121.83
1122.04
1122.03
1122.47
1123.03
1123.49
1123.79
1123.76
1123.29
1122.41
1121.8
1121.54
1120.72
1119.78
1119.88
1120.36
1120.96
1121.09
1120.54
1120.84
1122.83
1124.15
1124.86
1125.48
1125.15
1116.74
1110.5
1109.61
1112.67
1129.07
1124.92
1121.35
1120.53
1121.91
1123.21
1123.32
1122.39
1121.22
1125.38
1130.22
1122.45
1122.31
1123.68
1124.16
1124.48
1124.64
1124.75
1124.79
1124.85
1125.54
1129.21
1129.1
1125.85
1124.71
1124.82
1125.23
1125.33
1125.12
1124.97
1124.87
1124.74
1124.41
1124.13
1125.54
1125.61
1122.32
1124.51
1125.02
1124.92
1124.89
1124.88
1124.87
1124.65
1124.29
1123.95
1123.77
1123.71
1123.41
1121.13
1118.21
1119.83
1122.6
1123.06
1123.13
1123.07
1123.5
1124.04
1124.39
1124.55
1124.58
1124.43
1124.12
1123.7
1123.41
1123.28
1119.78
1121.82
1131.44
1133
1126.56
1129.72
1135.61
1143.4
1147.22
1139.54
1126.51
1124.63
1124.76
1124.82
1124.82
1124.79
1124.76
1124.9
1124.97
1124.99
1124.99
1125.08
1125.3
1126.27
1125.15
1123.96
1124.1
1124.27
1124.29
1124.18
1124.04
1124.19
1124.49
1124.65
1124.73
1124.77
1124.79
1124.79
1124.79
1124.79
1124.8
1124.82
1124.84
1124.91
1125.05
1125.15
1125.08
1124.96
1124.89
1124.88
1124.89
1124.88
1124.87
1124.87
1124.9
1124.99
1125.22
1125.37
1125.66
1125.24
1105.12
1111.36
1121.57
1131.62
1139.96
1138.44
1134.25
1131.95
1130.68
1129.07
1125.31
1122.62
1127.69
1131.53
1131.87
1131.66
1130.36
1124.54
1112.31
1114.37
1136.32
1140.84
1136.05
1133.45
1132.56
1132.18
1131.91
1131.57
1131.11
1127.58
1111.61
1099.95
1100.61
1104.57
1118.13
1129.23
1129.04
1129.46
1130.71
1131.23
1131.08
1130.22
1128.48
1126.92
1127.15
1128.98
1130.58
1131.26
1131.41
1131.23
1131.01
1130.71
1130.12
1129.63
1129.49
1129.53
1129.63
1129.62
1129.59
1129.72
1129.61
1129.42
1128.35
1126.13
1125.97
1129.03
1130.99
1131.9
1132.39
1133.15
1132.43
1118.29
1108.91
1116.75
1133.97
1134.65
1130.54
1128.13
1128.05
1129.77
1130.22
1128.6
1126.59
1130.38
1135.85
1130.11
1130.43
1131.44
1131.7
1131.92
1132.16
1132.27
1132.28
1132.22
1133.31
1137.76
1136.18
1132.69
1131.91
1132.11
1132.37
1132.47
1132.47
1132.49
1132.52
1132.57
1132.57
1132.73
1135.75
1134.06
1129.34
1131.63
1133.05
1132.45
1132.26
1132.2
1132.11
1132.08
1132.08
1132.05
1131.98
1131.8
1131.07
1128.27
1124.57
1127.46
1130.05
1130.55
1130.26
1129.42
1130.06
1132.48
1132.34
1132.25
1132.16
1132.04
1131.93
1131.84
1131.7
1131.39
1127.33
1121.12
1129.23
1138.24
1133.45
1133.93
1135.59
1144.75
1150.34
1145.88
1137.88
1131.76
1132.5
1132.57
1132.61
1132.49
1132.17
1132.03
1132.14
1132.24
1132.28
1132.34
1132.63
1133.18
1132.21
1131.51
1131.78
1131.93
1131.94
1131.76
1131.52
1131.67
1131.98
1132.14
1132.2
1132.23
1132.23
1132.23
1132.22
1132.21
1132.23
1132.25
1132.27
1132.31
1132.45
1132.6
1132.53
1132.39
1132.32
1132.31
1132.31
1132.31
1132.3
1132.3
1132.34
1132.46
1132.92
1132.88
1132.79
1132.77
1100.36
1102.81
1106.25
1115.24
1135.8
1141.44
1139.67
1138.42
1137.63
1135.65
1132.05
1128.25
1135.62
1138.86
1139.52
1139.45
1138.85
1132.86
1116.62
1121.29
1141.41
1148.55
1146.48
1142.78
1140.6
1139.67
1139.21
1138.8
1138.06
1135.4
1125.7
1113.8
1115.5
1123.61
1134.54
1136.59
1135.9
1136.69
1138.17
1138.85
1138.86
1138.36
1136.33
1133.44
1133.41
1136.38
1138.39
1139.05
1139.15
1138.97
1138.36
1137.2
1136.34
1136.54
1137.09
1137.44
1137.57
1137.66
1137.95
1138.12
1138.24
1138.05
1135.15
1129.6
1130.14
1136.19
1138.81
1139.44
1139.66
1139.89
1140.31
1135.26
1114.33
1132.65
1141.32
1140.97
1139.73
1137.4
1136.38
1137.94
1138.39
1136.3
1133.75
1135.18
1141.7
1138.56
1138.49
1138.98
1139.25
1139.64
1140.2
1140.33
1140.18
1139.73
1141.06
1144.47
1142.37
1139.33
1139.13
1139.47
1139.63
1139.72
1139.78
1139.85
1139.92
1140.07
1140.24
1140.5
1142.57
1134.83
1130.48
1136.53
1140.37
1139.71
1139.26
1139.08