/*--------------------------------*- C++ -*----------------------------------*\
  =========                 |
  \\      /  F ield         | OpenFOAM: The Open Source CFD Toolbox
   \\    /   O peration     | Website:  https://openfoam.org
    \\  /    A nd           | Version:  8
     \\/     M anipulation  |
\*---------------------------------------------------------------------------*/
FoamFile
{
    version     2.0;
    format      ascii;
    class       volVectorField;
    location    "900";
    object      U;
}
// * * * * * * * * * * * * * * * * * * * * * * * * * * * * * * * * * * * * * //

dimensions      [0 1 -1 0 0 0 0];

internalField   nonuniform List<vector> 
20000
(
(4.20149e-06 0 -2.33531e-06)
(9.55941e-06 0 -2.206e-09)
(9.17033e-06 0 2.15544e-06)
(5.75801e-06 0 1.85117e-06)
(3.00562e-06 0 5.95839e-07)
(1.53272e-06 0 1.66184e-07)
(4.61472e-07 0 2.30662e-07)
(-5.60265e-07 0 3.68561e-07)
(-1.72557e-06 0 5.70838e-07)
(-3.09756e-06 0 8.27512e-07)
(-4.68651e-06 0 1.19871e-06)
(-5.43086e-06 0 6.85336e-07)
(1.71776e-05 0 -2.15781e-05)
(4.71587e-05 0 -6.16534e-06)
(-4.25741e-05 0 9.87414e-05)
(-0.000202715 0 6.53092e-05)
(-3.04996e-05 0 -0.000233226)
(0.000346805 0 -0.000143851)
(0.000300858 0 0.000181236)
(1.72007e-05 0 8.99691e-05)
(-8.93526e-05 0 7.65336e-06)
(-0.000101926 0 4.00465e-08)
(-0.000104686 0 4.13819e-07)
(-0.000107823 0 1.52114e-06)
(-0.000112842 0 2.651e-06)
(-0.000119652 0 2.88164e-06)
(-0.000126495 0 1.2187e-06)
(-0.000131749 0 -1.50633e-06)
(-0.000134886 0 -3.36747e-06)
(-0.000133692 0 -6.20174e-06)
(-0.000126497 0 -7.50853e-06)
(-0.000113802 0 -9.14239e-06)
(-9.70469e-05 0 -9.84312e-06)
(-8.04473e-05 0 -7.93462e-06)
(-6.88845e-05 0 -4.25036e-06)
(-6.39457e-05 0 -9.50614e-07)
(-6.34293e-05 0 3.94242e-07)
(-6.31141e-05 0 -6.25203e-07)
(-5.89583e-05 0 -3.41439e-06)
(-4.93919e-05 0 -6.0689e-06)
(-3.78381e-05 0 -5.60111e-06)
(-3.14302e-05 0 -1.29578e-06)
(-3.52234e-05 0 4.18934e-06)
(-4.98205e-05 0 8.91609e-06)
(-7.30588e-05 0 1.24961e-05)
(-0.000102132 0 1.42283e-05)
(-0.000132149 0 1.33475e-05)
(-0.000157777 0 9.48801e-06)
(-0.000173856 0 4.26284e-06)
(-0.000177261 0 -1.63914e-06)
(-0.000168232 0 -7.67196e-06)
(-0.000149522 0 -1.12917e-05)
(-0.00012905 0 -1.02337e-05)
(-0.000113381 0 -7.21392e-06)
(-0.00010063 0 -7.76985e-06)
(-7.45559e-05 0 -2.03622e-05)
(-6.76471e-05 0 1.38763e-05)
(-8.1829e-05 0 3.40777e-06)
(-7.20458e-05 0 -1.0479e-05)
(-5.74557e-05 0 -3.02193e-06)
(-5.40692e-05 0 8.73816e-09)
(-5.55912e-05 0 1.66799e-06)
(-6.15619e-05 0 4.36724e-06)
(-7.31005e-05 0 6.96673e-06)
(-8.69922e-05 0 5.23513e-06)
(-8.93953e-05 0 -6.41689e-06)
(-8.15333e-05 0 -4.96814e-06)
(-7.11362e-05 0 -7.79684e-06)
(-4.98563e-05 0 -1.49407e-05)
(-3.19959e-05 0 -3.92731e-06)
(-2.97356e-05 0 8.73602e-07)
(-3.29547e-05 0 1.82048e-06)
(-4.08962e-05 0 5.74963e-06)
(-5.29646e-05 0 6.15966e-06)
(-6.29517e-05 0 3.81486e-06)
(-6.85264e-05 0 1.81907e-06)
(-7.0937e-05 0 7.15623e-07)
(-7.15142e-05 0 7.3288e-08)
(-7.14877e-05 0 2.55038e-07)
(-7.84082e-05 0 7.3844e-06)
(-0.000136662 0 5.20731e-05)
(-1.2484e-05 0 -0.000174033)
(-0.000120631 0 0.000284129)
(-0.000129964 0 -0.000274212)
(1.50992e-05 0 0.000128293)
(-0.00012392 0 9.03067e-06)
(-0.000122798 0 -1.16648e-05)
(-0.000102639 0 -9.88114e-06)
(-8.78391e-05 0 -6.04992e-06)
(-7.90043e-05 0 -3.93327e-06)
(-7.10306e-05 0 -5.21002e-06)
(-5.64666e-05 0 -1.02985e-05)
(-3.47392e-05 0 -1.19557e-05)
(-1.74378e-05 0 -5.53057e-06)
(-1.05778e-05 0 -1.36902e-06)
(-9.42942e-06 0 1.80885e-07)
(-1.13296e-05 0 1.69111e-06)
(-1.67841e-05 0 3.74477e-06)
(-2.31044e-05 0 2.53528e-06)
(-2.73566e-05 0 1.5774e-06)
(-2.97135e-05 0 6.04855e-07)
(-3.04079e-05 0 -1.73303e-08)
(-3.1861e-05 0 1.43299e-06)
(-3.73083e-05 0 3.9952e-06)
(-4.92394e-05 0 7.89505e-06)
(-6.82029e-05 0 1.10293e-05)
(-8.78026e-05 0 8.52425e-06)
(-9.89351e-05 0 2.54845e-06)
(-9.69473e-05 0 -4.62019e-06)
(-7.79423e-05 0 -1.45145e-05)
(-4.55938e-05 0 -1.79565e-05)
(-1.6786e-05 0 -1.09204e-05)
(-2.40842e-06 0 -3.49386e-06)
(1.60356e-06 0 -5.41524e-07)
(1.64179e-06 0 4.84611e-07)
(1.12426e-08 0 1.12907e-06)
(-2.6408e-06 0 1.52406e-06)
(-5.40116e-06 0 1.27314e-06)
(-7.05835e-06 0 4.42522e-07)
(-7.31347e-06 0 -1.37818e-07)
(-6.80149e-06 0 -3.44084e-07)
(-6.02557e-06 0 -4.15949e-07)
(-5.18541e-06 0 -4.17714e-07)
(-4.51373e-06 0 -2.56384e-07)
(-4.36551e-06 0 9.5527e-08)
(-4.82533e-06 0 3.42593e-07)
(-5.52858e-06 0 3.41054e-07)
(-6.06144e-06 0 1.80033e-07)
(-6.23138e-06 0 -1.5789e-08)
(-5.97436e-06 0 -2.43303e-07)
(-5.18392e-06 0 -5.47218e-07)
(-3.90714e-06 0 -7.33238e-07)
(-2.71696e-06 0 -4.71117e-07)
(-2.49514e-06 0 2.24148e-07)
(-4.68148e-06 0 1.93028e-06)
(-1.39928e-05 0 7.29256e-06)
(-3.51721e-05 0 1.37528e-05)
(-5.57172e-05 0 6.73224e-06)
(-6.10762e-05 0 -1.30777e-06)
(-5.57003e-05 0 -3.98668e-06)
(-4.87591e-05 0 -2.97255e-06)
(-4.45793e-05 0 -1.30239e-06)
(-4.29571e-05 0 -4.51669e-07)
(-4.21226e-05 0 -5.55398e-07)
(-4.0403e-05 0 -1.27115e-06)
(-3.54199e-05 0 -3.72111e-06)
(-2.51503e-05 0 -6.3469e-06)
(-1.45217e-05 0 -3.96853e-06)
(-8.44751e-06 0 -1.93598e-06)
(-5.78795e-06 0 -6.63314e-07)
(-5.25746e-06 0 1.29383e-07)
(-6.52364e-06 0 1.11995e-06)
(-1.17009e-05 0 4.02942e-06)
(-2.7446e-05 0 1.17004e-05)
(-5.79177e-05 0 1.88777e-05)
(-7.32724e-05 0 -3.08185e-06)
(-4.58637e-05 0 -2.33909e-05)
(-2.71217e-06 0 -1.8157e-05)
(2.0782e-05 0 -3.38539e-06)
(2.26472e-05 0 3.05752e-06)
(1.69768e-05 0 3.365e-06)
(1.01388e-05 0 3.77107e-06)
(4.75202e-06 0 1.76242e-06)
(2.26671e-06 0 7.72797e-07)
(1.29207e-06 0 2.34604e-07)
(9.7466e-07 0 9.6439e-08)
(8.77984e-07 0 2.17209e-08)
(8.86328e-07 0 -6.27407e-09)
(9.771e-07 0 -4.7882e-08)
(1.15353e-06 0 -7.71484e-08)
(1.31595e-06 0 -3.12065e-08)
(1.28422e-06 0 7.13548e-08)
(1.09455e-06 0 8.34693e-08)
(9.20107e-07 0 4.42155e-08)
(8.54979e-07 0 -6.22933e-09)
(1.05412e-06 0 -1.59462e-07)
(1.55141e-06 0 -1.71665e-07)
(-6.27846e-06 0 8.33884e-06)
(-1.91521e-05 0 4.90127e-06)
(-1.55753e-05 0 -8.2104e-06)
(-1.39311e-06 0 -5.78544e-06)
(9.95421e-06 0 -5.42266e-06)
(1.06948e-05 0 4.82313e-06)
(-1.81787e-05 0 2.42699e-05)
(-0.000150773 0 0.000108736)
(-4.58588e-05 0 -0.000212864)
(8.15098e-05 0 8.64502e-05)
(-6.24347e-06 0 1.96581e-06)
(-7.38697e-06 0 -5.36955e-07)
(-6.23785e-06 0 -5.26475e-07)
(-4.96273e-06 0 -7.13194e-07)
(-3.46953e-06 0 -7.60274e-07)
(-2.20753e-06 0 -4.85278e-07)
(-1.52218e-06 0 -1.85079e-07)
(-1.3865e-06 0 6.29475e-08)
(-1.76347e-06 0 3.32385e-07)
(-2.43328e-06 0 3.59336e-07)
(-2.62597e-06 0 -1.29328e-07)
(-1.92393e-06 0 -5.21168e-07)
(-6.89092e-07 0 -6.83906e-07)
(1.35331e-06 0 -5.19396e-06)
(4.04788e-06 0 -4.5398e-07)
(6.76949e-06 0 3.8535e-06)
(8.12616e-06 0 3.97476e-06)
(7.80811e-06 0 1.04153e-06)
(6.09032e-06 0 7.07466e-07)
(2.94885e-06 0 1.4213e-06)
(-1.14897e-07 0 1.67731e-06)
(-2.28862e-06 0 1.90957e-06)
(-3.75219e-06 0 2.41419e-06)
(-5.74283e-06 0 4.10873e-06)
(-1.1014e-05 0 6.05138e-06)
(3.44748e-05 0 -9.12054e-05)
(0.000131216 0 -5.80542e-05)
(6.13762e-05 0 0.000315806)
(-8.97724e-05 0 0.000164666)
(-8.16818e-05 0 -0.000511291)
(-6.30188e-05 0 -0.000268747)
(-8.84656e-05 0 0.000359348)
(-6.4976e-05 0 0.000150387)
(-3.8973e-05 0 1.26454e-05)
(-3.91836e-05 0 -3.27105e-08)
(-4.06832e-05 0 1.29094e-06)
(-4.20044e-05 0 3.41008e-06)
(-4.25053e-05 0 5.16349e-06)
(-4.25667e-05 0 5.56397e-06)
(-4.40132e-05 0 3.288e-06)
(-4.84628e-05 0 -1.00047e-06)
(-5.45075e-05 0 -5.18469e-06)
(-5.99494e-05 0 -1.12787e-05)
(-6.24331e-05 0 -1.59393e-05)
(-6.18321e-05 0 -1.96185e-05)
(-6.15488e-05 0 -1.98612e-05)
(-6.26673e-05 0 -1.54831e-05)
(-6.31006e-05 0 -8.99805e-06)
(-6.07759e-05 0 -3.93715e-06)
(-5.56741e-05 0 -2.28666e-06)
(-4.97191e-05 0 -4.06018e-06)
(-4.52099e-05 0 -8.47543e-06)
(-4.1831e-05 0 -1.39477e-05)
(-3.60638e-05 0 -1.54276e-05)
(-2.8378e-05 0 -6.79394e-06)
(-2.48003e-05 0 7.92451e-06)
(-2.60179e-05 0 1.85461e-05)
(-2.80252e-05 0 2.57202e-05)
(-2.94737e-05 0 2.90323e-05)
(-2.9534e-05 0 2.61466e-05)
(-2.74014e-05 0 1.7263e-05)
(-2.52822e-05 0 7.8434e-06)
(-2.74887e-05 0 -7.37423e-07)
(-3.69371e-05 0 -8.97453e-06)
(-5.35417e-05 0 -1.32923e-05)
(-7.55466e-05 0 -9.17518e-06)
(-0.000100234 0 -2.91413e-06)
(-0.000120721 0 -8.5765e-06)
(-0.000130076 0 -3.91782e-05)
(-0.000109574 0 6.64926e-06)
(-7.01129e-05 0 -9.70373e-06)
(-4.44269e-05 0 -2.87666e-05)
(-3.41961e-05 0 -7.89058e-06)
(-3.23713e-05 0 3.44648e-07)
(-3.33499e-05 0 4.18381e-06)
(-3.39992e-05 0 8.70439e-06)
(-3.2139e-05 0 1.22071e-05)
(-3.03036e-05 0 1.02694e-05)
(-4.05364e-05 0 -2.74822e-06)
(-5.84186e-05 0 -2.69435e-06)
(-7.28383e-05 0 -9.08305e-06)
(-8.25026e-05 0 -2.78312e-05)
(-8.00215e-05 0 -1.41502e-05)
(-7.07579e-05 0 -3.48202e-06)
(-5.41125e-05 0 -9.72918e-06)
(-3.42955e-05 0 3.95077e-06)
(-2.26742e-05 0 7.62391e-06)
(-1.58359e-05 0 5.18009e-06)
(-1.26697e-05 0 2.80467e-06)
(-1.20739e-05 0 1.65542e-06)
(-1.34545e-05 0 1.35154e-06)
(-1.6429e-05 0 2.4038e-06)
(-1.43709e-05 0 1.11134e-05)
(3.79159e-05 0 5.60597e-05)
(-1.78269e-05 0 -0.000243383)
(-4.31996e-05 0 0.000489664)
(-0.00013834 0 -0.000374429)
(-0.000192326 0 0.000136493)
(-5.62111e-05 0 1.78757e-06)
(-3.90587e-05 0 -2.44368e-05)
(-3.51025e-05 0 -2.28394e-05)
(-2.96061e-05 0 -1.47925e-05)
(-2.67526e-05 0 -8.35418e-06)
(-2.93714e-05 0 -7.60535e-06)
(-3.97495e-05 0 -1.3269e-05)
(-5.36935e-05 0 -1.73777e-05)
(-5.84161e-05 0 -1.29129e-05)
(-5.17641e-05 0 -7.65749e-06)
(-4.37635e-05 0 -2.85308e-06)
(-3.97097e-05 0 2.37874e-06)
(-3.9887e-05 0 8.46109e-06)
(-4.25136e-05 0 6.43894e-06)
(-4.58542e-05 0 4.80333e-06)
(-4.81463e-05 0 1.56689e-06)
(-4.91643e-05 0 4.26844e-07)
(-5.25119e-05 0 5.57761e-06)
(-5.96726e-05 0 1.2234e-05)
(-6.36913e-05 0 1.53791e-05)
(-5.56618e-05 0 1.43209e-05)
(-4.04127e-05 0 9.49247e-06)
(-3.03588e-05 0 2.58354e-06)
(-3.12353e-05 0 -5.85907e-06)
(-4.32363e-05 0 -2.04171e-05)
(-5.22818e-05 0 -3.54984e-05)
(-3.02276e-05 0 -4.43564e-05)
(2.89539e-06 0 -1.76532e-05)
(1.14891e-05 0 9.46172e-07)
(6.09036e-06 0 4.31377e-06)
(5.52706e-07 0 4.44353e-06)
(-2.54656e-06 0 3.97019e-06)
(-3.5138e-06 0 2.61797e-06)
(-3.47777e-06 0 8.08867e-07)
(-3.42539e-06 0 -2.29819e-07)
(-3.58267e-06 0 -5.60406e-07)
(-3.81619e-06 0 -7.17409e-07)
(-3.94916e-06 0 -8.11972e-07)
(-3.98733e-06 0 -4.99781e-07)
(-4.21415e-06 0 4.0215e-07)
(-4.52091e-06 0 7.82164e-07)
(-4.60554e-06 0 6.72283e-07)
(-4.66054e-06 0 4.2734e-07)
(-4.9822e-06 0 2.20944e-07)
(-5.7431e-06 0 1.71779e-08)
(-7.08318e-06 0 -2.68993e-07)
(-8.9537e-06 0 -4.47469e-07)
(-1.1188e-05 0 2.10891e-07)
(-1.58221e-05 0 3.80147e-06)
(-2.69441e-05 0 1.14685e-05)
(-3.89229e-05 0 1.88306e-05)
(-3.70484e-05 0 2.13535e-05)
(-2.56889e-05 0 8.27953e-06)
(-1.97154e-05 0 -3.40523e-06)
(-2.08289e-05 0 -6.10806e-06)
(-2.64574e-05 0 -2.2542e-06)
(-3.47649e-05 0 1.91239e-06)
(-4.38633e-05 0 3.53673e-06)
(-5.30911e-05 0 3.50398e-06)
(-6.32062e-05 0 2.73309e-06)
(-7.02804e-05 0 -5.65856e-06)
(-6.20431e-05 0 -2.24296e-05)
(-4.15905e-05 0 -1.83319e-05)
(-2.55138e-05 0 -9.35831e-06)
(-1.84391e-05 0 -2.85399e-06)
(-1.79036e-05 0 1.2764e-06)
(-2.22884e-05 0 5.62762e-06)
(-3.08297e-05 0 1.32856e-05)
(-3.95901e-05 0 2.71269e-05)
(-3.90791e-05 0 3.38644e-05)
(-2.43132e-05 0 -1.65945e-05)
(-1.06847e-05 0 -4.95532e-05)
(-9.21991e-06 0 -3.46777e-05)
(-8.79548e-06 0 -8.57722e-06)
(-3.04321e-06 0 2.37961e-06)
(3.14695e-06 0 4.51182e-06)
(6.69065e-06 0 6.46211e-06)
(7.27398e-06 0 4.28174e-06)
(5.45629e-06 0 2.81491e-06)
(3.45675e-06 0 1.31899e-06)
(2.23805e-06 0 6.40981e-07)
(1.61372e-06 0 2.54308e-07)
(1.36413e-06 0 5.7021e-08)
(1.32288e-06 0 -9.59885e-08)
(1.40115e-06 0 -2.00059e-07)
(1.48673e-06 0 -9.32446e-08)
(1.47331e-06 0 1.68771e-07)
(1.36694e-06 0 2.07482e-07)
(1.25946e-06 0 1.15491e-07)
(1.21983e-06 0 -7.45856e-09)
(1.21935e-06 0 -2.61677e-07)
(-1.10201e-07 0 1.10623e-06)
(-5.45748e-06 0 2.08799e-05)
(-1.42439e-05 0 1.47727e-05)
(-1.70618e-05 0 -1.81811e-05)
(-5.64996e-06 0 -2.08683e-05)
(1.66547e-05 0 -2.35251e-05)
(1.06591e-05 0 2.85949e-05)
(-8.71162e-06 0 4.91616e-05)
(7.42155e-05 0 0.000134091)
(-6.87653e-06 0 -0.000261096)
(-8.87615e-05 0 9.02734e-05)
(-3.44428e-06 0 1.30456e-06)
(-1.01057e-06 0 -8.49847e-07)
(-1.5495e-06 0 -7.1887e-07)
(-2.39982e-06 0 -8.91209e-07)
(-3.49445e-06 0 -9.36788e-07)
(-4.39003e-06 0 -6.26863e-07)
(-4.783e-06 0 -2.86727e-07)
(-4.68445e-06 0 -2.72971e-08)
(-4.03378e-06 0 1.85276e-07)
(-2.81377e-06 0 -9.81371e-09)
(-1.50918e-06 0 -8.26253e-07)
(-6.42641e-07 0 -1.33303e-06)
(-1.73017e-07 0 -1.53872e-06)
(1.2553e-06 0 -6.15968e-06)
(4.06157e-06 0 -9.662e-07)
(7.88711e-06 0 2.43382e-06)
(1.5737e-05 0 1.56075e-07)
(2.55659e-05 0 -4.28449e-06)
(2.90018e-05 0 7.34954e-07)
(1.93112e-05 0 9.84788e-06)
(5.13e-06 0 7.6022e-06)
(-2.17724e-06 0 4.65246e-06)
(-5.55398e-06 0 4.72501e-06)
(-1.09094e-05 0 1.0248e-05)
(-1.79981e-05 0 1.49494e-05)
(0.0001888 0 -0.000346632)
(0.000438174 0 -0.000142323)
(0.000288189 0 0.000620935)
(6.13886e-05 0 0.000231998)
(-9.44026e-05 0 -0.000441677)
(-0.000223101 0 -0.00024441)
(-0.000146213 0 0.000263794)
(-3.84421e-05 0 9.75039e-05)
(-1.82545e-05 0 9.13755e-06)
(-1.74134e-05 0 -1.9189e-06)
(-1.45573e-05 0 4.36156e-08)
(-1.16863e-05 0 2.45989e-06)
(-9.52993e-06 0 4.13632e-06)
(-8.26516e-06 0 4.88445e-06)
(-7.72811e-06 0 3.85276e-06)
(-7.54751e-06 0 7.72777e-07)
(-8.12985e-06 0 -3.19149e-06)
(-1.09693e-05 0 -8.13888e-06)
(-1.63318e-05 0 -1.39416e-05)
(-2.23245e-05 0 -1.83801e-05)
(-2.78377e-05 0 -1.76662e-05)
(-3.28508e-05 0 -1.29712e-05)
(-3.57628e-05 0 -9.06733e-06)
(-3.44248e-05 0 -7.92143e-06)
(-2.90998e-05 0 -8.80181e-06)
(-2.2572e-05 0 -9.99476e-06)
(-1.75821e-05 0 -1.20542e-05)
(-1.43143e-05 0 -1.72558e-05)
(-1.10689e-05 0 -2.19505e-05)
(-7.94977e-06 0 -1.29923e-05)
(-1.17354e-05 0 1.1585e-05)
(-2.29505e-05 0 2.51648e-05)
(-3.14878e-05 0 2.90019e-05)
(-3.1287e-05 0 2.72882e-05)
(-2.35056e-05 0 2.04888e-05)
(-1.46565e-05 0 1.18517e-05)
(-9.64763e-06 0 5.69515e-06)
(-8.60881e-06 0 1.94318e-06)
(-1.13777e-05 0 -4.10924e-07)
(-1.98216e-05 0 1.51021e-06)
(-3.45695e-05 0 1.03619e-05)
(-5.04473e-05 0 1.52792e-05)
(-6.20347e-05 0 2.79192e-06)
(-7.42803e-05 0 -3.00432e-05)
(-7.34319e-05 0 -2.27201e-05)
(-5.66263e-05 0 -3.46254e-05)
(-4.09452e-05 0 -4.38389e-05)
(-2.90187e-05 0 -1.39947e-05)
(-2.2204e-05 0 -1.57033e-06)
(-1.76155e-05 0 2.95959e-06)
(-1.28838e-05 0 6.21836e-06)
(-8.24631e-06 0 8.46227e-06)
(-5.48825e-06 0 9.43329e-06)
(-5.63558e-06 0 8.1619e-06)
(-8.14985e-06 0 6.23281e-06)
(-1.40831e-05 0 1.6325e-06)
(-3.10178e-05 0 -1.33511e-05)
(-5.72359e-05 0 -7.67494e-06)
(-7.7034e-05 0 -3.58946e-06)
(-7.40771e-05 0 -3.33131e-05)
(-4.98846e-05 0 -1.93441e-05)
(-2.59954e-05 0 -6.35247e-06)
(-1.33953e-05 0 -1.07648e-06)
(-8.42054e-06 0 6.12438e-07)
(-6.7755e-06 0 1.52166e-06)
(-6.65943e-06 0 2.78706e-06)
(-7.447e-06 0 4.89848e-06)
(-8.27828e-06 0 7.80764e-06)
(-5.4758e-06 0 5.03086e-06)
(-4.19001e-05 0 -9.90779e-05)
(-1.83878e-05 0 0.000348161)
(-2.05554e-06 0 -0.00015374)
(-3.45511e-05 0 2.29776e-06)
(-2.17041e-05 0 -1.31155e-05)
(-2.74707e-05 0 -2.10468e-05)
(-3.48722e-05 0 -2.30479e-05)
(-3.72338e-05 0 -1.82307e-05)
(-3.50746e-05 0 -1.06397e-05)
(-3.36805e-05 0 -4.80122e-06)
(-3.68528e-05 0 -3.03343e-06)
(-4.55535e-05 0 -5.18875e-06)
(-5.74307e-05 0 -8.61261e-06)
(-6.68122e-05 0 -9.44307e-06)
(-6.88705e-05 0 -7.29746e-06)
(-6.41899e-05 0 -2.27532e-06)
(-5.63681e-05 0 4.999e-06)
(-4.90222e-05 0 4.54733e-06)
(-4.41295e-05 0 4.44658e-06)
(-4.14472e-05 0 9.30052e-07)
(-3.99482e-05 0 8.42318e-08)
(-3.68599e-05 0 5.68718e-06)
(-2.87436e-05 0 1.07077e-05)
(-1.69016e-05 0 8.75528e-06)
(-7.80323e-06 0 3.6473e-06)
(-4.00802e-06 0 1.06362e-06)
(-3.14971e-06 0 8.37225e-08)
(-4.52712e-06 0 -1.10785e-06)
(-1.19779e-05 0 -5.71072e-06)
(-3.11177e-05 0 -2.20176e-05)
(-1.9811e-05 0 -9.12313e-05)
(2.11774e-05 0 -4.49399e-05)
(2.59588e-05 0 1.48136e-05)
(7.73086e-06 0 1.40433e-05)
(-9.47312e-07 0 8.91969e-06)
(-4.26752e-06 0 5.93075e-06)
(-5.51672e-06 0 2.91829e-06)
(-5.63791e-06 0 6.55701e-07)
(-5.37951e-06 0 -3.22481e-07)
(-5.11621e-06 0 -5.30947e-07)
(-5.03027e-06 0 -5.69491e-07)
(-5.17445e-06 0 -6.57946e-07)
(-5.72129e-06 0 -2.83257e-08)
(-7.15786e-06 0 1.66412e-06)
(-8.3284e-06 0 1.09072e-06)
(-8.31496e-06 0 5.15043e-07)
(-8.09877e-06 0 4.65547e-07)
(-8.16832e-06 0 5.91494e-07)
(-8.52097e-06 0 7.63082e-07)
(-9.17222e-06 0 9.66119e-07)
(-1.0491e-05 0 1.46756e-06)
(-1.38293e-05 0 3.75019e-06)
(-2.16937e-05 0 1.24795e-05)
(-3.12895e-05 0 2.30978e-05)
(-3.44592e-05 0 2.19833e-05)
(-2.96551e-05 0 1.13356e-05)
(-2.38856e-05 0 1.09542e-06)
(-2.18181e-05 0 -4.3273e-06)
(-2.29835e-05 0 -2.97752e-06)
(-2.61905e-05 0 3.36344e-06)
(-2.92046e-05 0 7.48847e-06)
(-3.07294e-05 0 8.38568e-06)
(-3.24078e-05 0 9.3158e-06)
(-3.69252e-05 0 1.12619e-05)
(-4.71021e-05 0 3.01878e-06)
(-6.38001e-05 0 -2.23078e-05)
(-7.75937e-05 0 -2.46637e-05)
(-8.10459e-05 0 -1.53036e-05)
(-8.27774e-05 0 -1.99739e-06)
(-9.27031e-05 0 1.01302e-05)
(-0.000106297 0 1.51903e-05)
(-0.00011011 0 1.664e-05)
(-9.72538e-05 0 2.0405e-05)
(-6.95065e-05 0 1.32587e-05)
(-3.85633e-05 0 -4.06977e-05)
(-1.9358e-05 0 -5.74521e-05)
(-8.27542e-06 0 -3.87705e-05)
(-9.36701e-07 0 -1.18699e-05)
(1.19497e-06 0 -1.89803e-06)
(2.18802e-06 0 1.97525e-06)
(3.77949e-06 0 4.31221e-06)
(6.0327e-06 0 4.1114e-06)
(8.01977e-06 0 3.28997e-06)
(9.02315e-06 0 2.17366e-06)
(8.95299e-06 0 1.29957e-06)
(8.5543e-06 0 7.48249e-07)
(8.08789e-06 0 3.73501e-07)
(7.52529e-06 0 2.80777e-07)
(6.56916e-06 0 3.85268e-07)
(5.12929e-06 0 7.36069e-07)
(3.49791e-06 0 1.00679e-06)
(2.13894e-06 0 8.16612e-07)
(1.27602e-06 0 4.57504e-07)
(8.81603e-07 0 1.07231e-07)
(7.7368e-07 0 -1.55673e-07)
(-8.78377e-07 0 4.25939e-06)
(-2.85995e-06 0 2.55216e-05)
(-1.666e-06 0 1.83307e-05)
(-5.26402e-06 0 -1.46549e-05)
(-1.41449e-05 0 -2.62557e-05)
(-2.39305e-05 0 -3.00362e-05)
(-2.7721e-05 0 4.53627e-05)
(-1.70987e-05 0 4.14477e-05)
(1.15784e-05 0 3.04238e-05)
(9.95664e-06 0 -7.45242e-05)
(-5.99025e-06 0 1.67064e-06)
(-8.02668e-10 0 -1.33005e-06)
(-7.34449e-08 0 -5.42834e-07)
(-2.61524e-07 0 -2.76117e-07)
(-5.40587e-07 0 -1.79519e-07)
(-9.36252e-07 0 -1.25429e-07)
(-1.34299e-06 0 -9.5175e-08)
(-1.63104e-06 0 -9.57122e-08)
(-1.76614e-06 0 -1.47783e-07)
(-1.73892e-06 0 -3.49403e-07)
(-1.51309e-06 0 -9.03991e-07)
(-1.0062e-06 0 -1.72769e-06)
(-4.35603e-07 0 -1.85125e-06)
(-1.02056e-07 0 -1.80774e-06)
(1.12655e-06 0 -5.81801e-06)
(4.82451e-06 0 -1.4128e-06)
(1.17003e-05 0 -1.47484e-07)
(2.11732e-05 0 -7.75666e-06)
(3.092e-05 0 -1.27043e-05)
(4.27056e-05 0 -6.19804e-06)
(4.39745e-05 0 2.3834e-05)
(2.39259e-05 0 2.7282e-05)
(-1.41646e-06 0 1.83455e-05)
(-2.14448e-05 0 1.57632e-05)
(-4.47847e-05 0 3.01171e-05)
(-2.89569e-05 0 -1.02295e-05)
(5.51752e-06 0 -0.000559373)
(-0.000274686 0 9.98671e-05)
(-0.000252749 0 0.000498146)
(0.000173803 0 0.000141976)
(0.000151559 0 -0.000188009)
(-6.92239e-05 0 -0.000163963)
(-8.1298e-05 0 0.000103027)
(-1.17581e-05 0 6.84033e-05)
(-1.13406e-05 0 1.01434e-05)
(-1.22392e-05 0 -6.09242e-06)
(-8.77547e-06 0 -3.16956e-06)
(-6.89725e-06 0 5.89189e-07)
(-6.26941e-06 0 2.97099e-06)
(-5.91902e-06 0 4.00929e-06)
(-5.20772e-06 0 2.85721e-06)
(-4.10671e-06 0 -1.88275e-07)
(-3.20172e-06 0 -3.15079e-06)
(-2.91526e-06 0 -6.15706e-06)
(-3.37021e-06 0 -1.06982e-05)
(-4.71927e-06 0 -1.50063e-05)
(-7.1266e-06 0 -1.39548e-05)
(-1.02818e-05 0 -9.26816e-06)
(-1.33954e-05 0 -7.24951e-06)
(-1.60575e-05 0 -8.69576e-06)
(-1.76169e-05 0 -1.19444e-05)
(-1.72225e-05 0 -1.38973e-05)
(-1.53547e-05 0 -1.52339e-05)
(-1.01085e-05 0 -2.31412e-05)
(1.80683e-06 0 -3.27286e-05)
(1.53373e-05 0 -2.20157e-05)
(3.64788e-06 0 3.15892e-05)
(-2.77612e-05 0 4.46221e-05)
(-3.88249e-05 0 2.92289e-05)
(-2.92461e-05 0 1.87769e-05)
(-1.87345e-05 0 1.17117e-05)
(-1.35236e-05 0 6.7949e-06)
(-1.23539e-05 0 4.29994e-06)
(-1.41592e-05 0 3.48036e-06)
(-1.98517e-05 0 5.25406e-06)
(-3.19819e-05 0 1.43335e-05)
(-4.89298e-05 0 2.69229e-05)
(-6.19964e-05 0 2.61782e-05)
(-6.93506e-05 0 1.03447e-05)
(-8.00681e-05 0 -1.48671e-05)
(-9.40853e-05 0 -2.54025e-05)
(-0.000106714 0 -3.734e-05)
(-0.000108825 0 -5.53441e-05)
(-9.2731e-05 0 -2.99495e-05)
(-6.93393e-05 0 -1.48489e-05)
(-4.8432e-05 0 -8.43801e-06)
(-3.09245e-05 0 -4.00714e-06)
(-1.78739e-05 0 1.44719e-06)
(-1.16768e-05 0 7.7818e-06)
(-1.15344e-05 0 9.98064e-06)
(-1.37973e-05 0 9.27399e-06)
(-1.82322e-05 0 8.90595e-06)
(-2.9062e-05 0 6.62027e-06)
(-4.40049e-05 0 1.18355e-05)
(-5.19035e-05 0 1.54088e-06)
(-5.56435e-05 0 -4.11996e-05)
(-5.38923e-05 0 -4.04341e-05)
(-4.03263e-05 0 -2.47701e-05)
(-2.52086e-05 0 -1.15071e-05)
(-1.56308e-05 0 -4.06415e-06)
(-1.1087e-05 0 -2.2107e-07)
(-9.38101e-06 0 2.64242e-06)
(-9.38815e-06 0 5.87909e-06)
(-1.13423e-05 0 9.76497e-06)
(-1.90897e-05 0 8.29375e-06)
(-5.84517e-05 0 -2.61814e-05)
(-9.66098e-06 0 0.000203333)
(2.57603e-05 0 -6.03722e-05)
(-2.4178e-05 0 -8.30556e-06)
(-2.93985e-05 0 -9.74297e-06)
(-3.37739e-05 0 -1.39072e-05)
(-3.90575e-05 0 -1.73946e-05)
(-4.33058e-05 0 -1.76683e-05)
(-4.40463e-05 0 -1.35172e-05)
(-4.12233e-05 0 -7.22524e-06)
(-3.70368e-05 0 -2.4378e-06)
(-3.3581e-05 0 -9.57142e-07)
(-3.23893e-05 0 -2.32642e-06)
(-3.42572e-05 0 -4.58977e-06)
(-3.84651e-05 0 -6.0397e-06)
(-4.23887e-05 0 -4.56042e-06)
(-4.21957e-05 0 -1.20828e-06)
(-3.78387e-05 0 -1.60204e-06)
(-3.19786e-05 0 -8.0471e-07)
(-2.65501e-05 0 -2.46588e-06)
(-2.18551e-05 0 -3.23859e-06)
(-1.57012e-05 0 -7.6033e-07)
(-8.46349e-06 0 1.4116e-06)
(-3.44041e-06 0 9.89232e-07)
(-1.46929e-06 0 2.79178e-07)
(-9.50285e-07 0 1.00386e-07)
(-1.00823e-06 0 2.46028e-07)
(-2.21478e-06 0 1.32424e-06)
(-8.10256e-06 0 5.22435e-06)
(-2.30077e-05 0 1.14679e-06)
(-6.60324e-06 0 -0.000142039)
(6.31225e-05 0 -0.000104789)
(7.64212e-05 0 5.6619e-05)
(2.1033e-05 0 4.58616e-05)
(-1.20673e-05 0 1.88804e-05)
(-2.43268e-05 0 1.15604e-05)
(-3.21758e-05 0 6.44446e-06)
(-3.60782e-05 0 1.27435e-06)
(-3.43875e-05 0 -2.76146e-06)
(-2.8589e-05 0 -4.05372e-06)
(-2.29836e-05 0 -2.64783e-06)
(-1.94241e-05 0 -1.8763e-06)
(-1.80087e-05 0 5.35782e-07)
(-1.87235e-05 0 3.58301e-06)
(-1.68378e-05 0 -1.21316e-06)
(-1.19208e-05 0 -1.90353e-06)
(-8.32172e-06 0 -8.34592e-07)
(-6.23466e-06 0 -7.9767e-08)
(-4.89595e-06 0 4.68453e-07)
(-4.04131e-06 0 1.06342e-06)
(-3.8129e-06 0 2.44483e-06)
(-5.34943e-06 0 7.56821e-06)
(-1.10662e-05 0 2.20089e-05)
(-1.72653e-05 0 2.89421e-05)
(-2.41949e-05 0 2.57755e-05)
(-3.40786e-05 0 1.22661e-05)
(-4.37885e-05 0 3.86448e-06)
(-5.29615e-05 0 -1.22574e-07)
(-5.76377e-05 0 -1.35018e-06)
(-5.37912e-05 0 1.15745e-06)
(-4.54334e-05 0 4.37705e-06)
(-3.92509e-05 0 6.81833e-06)
(-3.74412e-05 0 1.07142e-05)
(-3.85858e-05 0 1.54911e-05)
(-4.04357e-05 0 1.08078e-05)
(-4.82332e-05 0 -5.5398e-06)
(-6.34793e-05 0 -1.22642e-05)
(-7.70254e-05 0 -1.04923e-05)
(-8.1754e-05 0 7.11846e-08)
(-7.44721e-05 0 1.13442e-05)
(-5.87513e-05 0 1.25747e-05)
(-4.36601e-05 0 8.69109e-06)
(-3.37862e-05 0 6.35975e-06)
(-2.9198e-05 0 -4.20951e-06)
(-2.98745e-05 0 -5.26492e-05)
(-3.0545e-05 0 -6.33639e-05)
(-1.20182e-05 0 -6.20675e-05)
(6.49757e-06 0 -1.41982e-05)
(5.71669e-06 0 -7.3237e-07)
(2.62339e-06 0 3.13222e-06)
(7.4051e-07 0 3.74861e-06)
(6.42202e-07 0 2.86513e-06)
(1.50013e-06 0 2.02809e-06)
(2.44507e-06 0 1.75246e-06)
(2.98263e-06 0 1.43054e-06)
(2.93979e-06 0 1.17302e-06)
(2.54765e-06 0 8.82352e-07)
(2.09357e-06 0 8.66562e-07)
(1.79221e-06 0 1.13317e-06)
(1.67663e-06 0 1.62841e-06)
(1.57084e-06 0 1.93692e-06)
(1.2225e-06 0 1.67583e-06)
(7.53572e-07 0 1.02004e-06)
(6.41209e-07 0 1.54877e-07)
(1.10688e-06 0 -4.24575e-07)
(-1.44707e-06 0 8.92039e-06)
(-3.51095e-06 0 2.51636e-05)
(1.49507e-06 0 1.28369e-05)
(1.09077e-06 0 -4.73801e-06)
(-1.37028e-05 0 -1.204e-05)
(-3.55605e-05 0 -1.22014e-05)
(-2.95322e-05 0 2.55598e-05)
(-1.04179e-06 0 2.22878e-05)
(1.14689e-05 0 8.49976e-06)
(2.76155e-06 0 -4.21807e-05)
(-3.96779e-06 0 -7.93708e-06)
(-5.50001e-08 0 -1.60333e-06)
(3.22937e-08 0 -2.817e-07)
(-2.52026e-07 0 -6.20772e-08)
(-3.83565e-07 0 2.47847e-08)
(-3.72668e-07 0 6.50866e-08)
(-2.89601e-07 0 4.79663e-08)
(-2.26434e-07 0 -5.24162e-09)
(-2.2854e-07 0 -9.3887e-08)
(-3.32085e-07 0 -3.18956e-07)
(-5.51117e-07 0 -9.30453e-07)
(-3.34737e-07 0 -2.40903e-06)
(2.85613e-07 0 -2.33976e-06)
(2.77092e-07 0 -1.6227e-06)
(-5.21638e-07 0 -3.53349e-06)
(1.5643e-06 0 -3.05987e-06)
(7.91455e-06 0 -4.13036e-06)
(1.33249e-05 0 -1.17057e-05)
(2.20996e-05 0 -2.0668e-05)
(5.76816e-05 0 -3.79116e-05)
(0.000133641 0 -1.01348e-05)
(0.000158959 0 7.21408e-05)
(3.96082e-05 0 0.000136761)
(-0.000109838 0 8.29057e-05)
(-0.000166239 0 4.95492e-05)
(-0.000153035 0 -6.12233e-05)
(-0.000248487 0 -0.000456966)
(-0.000237507 0 0.000253923)
(-4.37256e-05 0 0.000117109)
(3.70315e-05 0 7.19225e-06)
(3.16871e-05 0 -3.29826e-05)
(-1.3817e-05 0 -6.00257e-05)
(-1.93576e-05 0 9.27532e-06)
(-2.37092e-06 0 6.84878e-05)
(-2.49182e-05 0 2.71392e-05)
(-3.30466e-05 0 -1.65692e-05)
(-2.01268e-05 0 -1.05844e-05)
(-1.48018e-05 0 -5.06088e-07)
(-1.60702e-05 0 3.19783e-06)
(-1.72783e-05 0 2.87637e-06)
(-1.55595e-05 0 -9.33604e-08)
(-1.187e-05 0 -3.20062e-06)
(-8.53167e-06 0 -5.07217e-06)
(-6.40179e-06 0 -7.1403e-06)
(-5.15299e-06 0 -1.10037e-05)
(-4.73839e-06 0 -1.4369e-05)
(-5.30165e-06 0 -1.22125e-05)
(-6.34457e-06 0 -7.19174e-06)
(-7.63893e-06 0 -5.13759e-06)
(-9.71621e-06 0 -6.22609e-06)
(-1.3206e-05 0 -9.53193e-06)
(-1.82581e-05 0 -1.19585e-05)
(-2.43303e-05 0 -1.35713e-05)
(-1.17218e-05 0 -4.39489e-05)
(2.85959e-05 0 -6.66934e-05)
(6.35405e-05 0 -4.13724e-05)
(2.86262e-05 0 9.13099e-05)
(-3.06086e-05 0 7.2219e-05)
(-4.04611e-05 0 2.38068e-05)
(-3.46959e-05 0 1.19351e-05)
(-3.73139e-05 0 1.29133e-05)
(-5.16965e-05 0 1.59091e-05)
(-7.98518e-05 0 2.24081e-05)
(-0.000121507 0 2.75789e-05)
(-0.000164958 0 2.684e-05)
(-0.000192791 0 2.80801e-05)
(-0.000194064 0 2.84473e-05)
(-0.000175999 0 1.93521e-05)
(-0.000158714 0 7.85773e-06)
(-0.000155485 0 -4.91699e-06)
(-0.000165559 0 -1.30355e-05)
(-0.000182605 0 -2.28243e-05)
(-0.000206979 0 -4.50792e-05)
(-0.000221935 0 -4.12428e-05)
(-0.000210921 0 -3.67571e-05)
(-0.000180968 0 -3.61179e-05)
(-0.000139185 0 -3.44093e-05)
(-9.81489e-05 0 -2.09491e-05)
(-8.73503e-05 0 1.47341e-05)
(-0.000106539 0 2.3655e-05)
(-0.000117324 0 9.62483e-06)
(-0.00011601 0 1.15219e-05)
(-0.000116259 0 1.35659e-05)
(-0.000107063 0 8.01308e-06)
(-8.58747e-05 0 -1.06609e-05)
(-7.54862e-05 0 -3.79501e-05)
(-7.69403e-05 0 -4.59504e-05)
(-6.92086e-05 0 -4.22041e-05)
(-5.06136e-05 0 -2.90445e-05)
(-3.31253e-05 0 -1.43748e-05)
(-2.36151e-05 0 -4.40139e-06)
(-2.08871e-05 0 2.1625e-06)
(-2.23362e-05 0 7.71197e-06)
(-2.59898e-05 0 1.35272e-05)
(-3.17011e-05 0 1.80592e-05)
(-4.5333e-05 0 1.72155e-05)
(-1.75852e-05 0 8.36147e-05)
(4.5626e-06 0 2.11925e-06)
(-1.60161e-05 0 2.43224e-07)
(-2.27938e-05 0 -5.58391e-06)
(-2.55758e-05 0 -1.01432e-05)
(-2.6618e-05 0 -1.42425e-05)
(-2.58686e-05 0 -1.73127e-05)
(-2.29327e-05 0 -1.69141e-05)
(-1.84878e-05 0 -1.23479e-05)
(-1.43525e-05 0 -6.6507e-06)
(-1.18581e-05 0 -3.21274e-06)
(-1.1071e-05 0 -2.22692e-06)
(-1.15673e-05 0 -2.34766e-06)
(-1.30476e-05 0 -2.58957e-06)
(-1.51519e-05 0 -2.07484e-06)
(-1.73101e-05 0 -2.01937e-06)
(-1.97172e-05 0 -3.1671e-06)
(-2.17344e-05 0 -3.4581e-06)
(-2.15269e-05 0 -5.75079e-06)
(-1.782e-05 0 -8.64209e-06)
(-1.1074e-05 0 -8.50899e-06)
(-4.92645e-06 0 -4.38497e-06)
(-1.95115e-06 0 -1.26714e-06)
(-1.08596e-06 0 -3.16331e-07)
(-9.40565e-07 0 2.86336e-08)
(-1.36898e-06 0 8.06716e-07)
(-4.78477e-06 0 5.39688e-06)
(-1.93317e-05 0 2.16193e-05)
(-2.66546e-05 0 7.05571e-06)
(3.29248e-05 0 -0.000223785)
(0.000182779 0 -0.000242423)
(0.000170464 0 0.000193445)
(-1.26774e-05 0 0.00014765)
(-0.000104508 0 4.20393e-05)
(-0.000121846 0 1.79887e-05)
(-0.000121474 0 7.50258e-06)
(-0.000114939 0 -2.38178e-06)
(-0.000104544 0 -1.1199e-05)
(-8.95005e-05 0 -1.64257e-05)
(-7.07248e-05 0 -1.45545e-05)
(-5.09508e-05 0 -1.30866e-05)
(-3.36876e-05 0 -6.54934e-06)
(-2.33117e-05 0 1.46053e-06)
(-1.6831e-05 0 -7.08737e-06)
(-1.09675e-05 0 -6.6202e-06)
(-7.38279e-06 0 -3.22045e-06)
(-5.70031e-06 0 -1.43e-06)
(-4.75543e-06 0 -4.46849e-07)
(-4.13408e-06 0 5.12029e-07)
(-4.02326e-06 0 2.65863e-06)
(-6.70231e-06 0 1.15499e-05)
(-1.57565e-05 0 3.27042e-05)
(-1.81403e-05 0 2.66082e-05)
(-2.10351e-05 0 3.76546e-05)
(-3.52015e-05 0 2.42176e-05)
(-4.73077e-05 0 1.36175e-05)
(-5.29626e-05 0 4.961e-06)
(-5.01851e-05 0 -4.38944e-06)
(-4.21106e-05 0 -7.53484e-06)
(-3.46989e-05 0 -2.56293e-06)
(-3.14072e-05 0 4.4089e-06)
(-3.08526e-05 0 1.09277e-05)
(-2.72924e-05 0 1.30579e-05)
(-1.98042e-05 0 7.72863e-06)
(-1.54401e-05 0 1.00892e-06)
(-1.67928e-05 0 -2.21449e-06)
(-2.05394e-05 0 -3.16725e-06)
(-2.19664e-05 0 -8.14674e-07)
(-1.82661e-05 0 1.65549e-06)
(-1.27677e-05 0 1.39522e-06)
(-9.41704e-06 0 1.67815e-06)
(-9.58818e-06 0 3.89693e-06)
(-1.62379e-05 0 6.15264e-07)
(-2.23496e-05 0 -5.02735e-05)
(-3.08827e-05 0 -5.61239e-05)
(-5.95001e-06 0 -0.00011247)
(2.20946e-05 0 -1.01598e-05)
(1.11054e-05 0 7.15494e-06)
(2.77693e-06 0 6.80709e-06)
(3.50458e-07 0 4.51094e-06)
(1.53424e-07 0 2.50102e-06)
(2.10585e-07 0 1.55512e-06)
(2.28245e-07 0 1.31908e-06)
(2.34501e-07 0 1.35628e-06)
(2.04433e-07 0 1.3429e-06)
(1.38439e-07 0 1.18503e-06)
(6.43243e-08 0 1.11219e-06)
(-9.79121e-09 0 1.29212e-06)
(-9.66631e-08 0 1.71763e-06)
(-1.85785e-07 0 2.11559e-06)
(-2.75709e-07 0 2.05645e-06)
(-4.56192e-07 0 1.46721e-06)
(-5.03235e-07 0 1.11454e-07)
(-4.61256e-07 0 -6.13061e-07)
(-2.50122e-06 0 1.39525e-05)
(-1.88026e-06 0 2.17888e-05)
(1.3633e-06 0 8.15429e-06)
(6.16535e-07 0 1.27758e-06)
(-2.38449e-06 0 -1.00322e-07)
(-5.2202e-06 0 6.7185e-07)
(-4.00148e-06 0 5.5142e-06)
(2.32912e-06 0 7.56953e-06)
(7.95383e-06 0 5.17341e-06)
(-2.9976e-06 0 -1.90533e-05)
(-1.09649e-05 0 -1.62477e-05)
(-3.36086e-06 0 -4.76897e-06)
(-3.00507e-07 0 -2.66181e-07)
(-1.44651e-07 0 4.65876e-08)
(-1.31523e-07 0 3.54578e-08)
(-1.01293e-07 0 1.51915e-08)
(-8.27996e-08 0 -1.5451e-09)
(-8.20117e-08 0 -1.65253e-08)
(-1.20127e-07 0 -3.75396e-08)
(-2.98148e-07 0 -8.58642e-08)
(-9.09567e-07 0 -3.18984e-07)
(-7.13988e-08 0 -4.05346e-06)
(1.68654e-06 0 -3.04404e-06)
(1.06968e-06 0 -2.64719e-07)
(-6.39623e-07 0 -1.01186e-06)
(-7.33424e-07 0 -4.5275e-06)
(-3.33758e-08 0 -6.21999e-06)
(-3.00875e-07 0 -1.05917e-05)
(-3.26766e-06 0 -2.15382e-05)
(-2.12744e-05 0 -4.48318e-05)
(-5.48453e-05 0 -2.78769e-05)