/*--------------------------------*- C++ -*----------------------------------*\
  =========                 |
  \\      /  F ield         | OpenFOAM: The Open Source CFD Toolbox
   \\    /   O peration     | Website:  https://openfoam.org
    \\  /    A nd           | Version:  8
     \\/     M anipulation  |
\*---------------------------------------------------------------------------*/
FoamFile
{
    version     2.0;
    format      ascii;
    class       volScalarField;
    location    "1";
    object      p;
}
// * * * * * * * * * * * * * * * * * * * * * * * * * * * * * * * * * * * * * //

dimensions      [1 -1 -2 0 0 0 0];

internalField   nonuniform List<scalar> 
20000
(
9974.36
9974.12
9973.99
9973.93
9973.87
9973.75
9973.38
9972.42
9970.79
9968.94
9967.44
9966.51
9966.08
9965.91
9965.85
9965.82
9965.78
9965.71
9965.58
9965.38
9965.13
9964.78
9964.09
9962.91
9961.58
9960.61
9960.05
9959.69
9959.39
9959.08
9958.76
9958.4
9958
9957.53
9957.07
9956.7
9956.47
9956.35
9956.26
9956.15
9955.96
9955.59
9954.98
9954.29
9953.75
9953.42
9953.21
9953
9952.68
9952.06
9951
9949.67
9948.39
9947.29
9946.46
9945.93
9945.67
9945.53
9945.42
9945.29
9945.08
9944.8
9944.54
9944.36
9944.21
9944.04
9943.81
9943.51
9943.18
9942.83
9942.47
9942.11
9941.79
9941.51
9941.26
9940.98
9940.61
9940.18
9939.72
9939.27
9938.75
9937.97
9936.77
9935.38
9934.29
9933.56
9932.98
9932.42
9931.93
9931.62
9931.46
9931.35
9931.23
9931.07
9930.87
9930.7
9930.58
9930.47
9930.35
9930.2
9930.07
9929.97
9929.89
9929.79
9929.55
9929.01
9928.14
9927.22
9926.59
9926.28
9926.12
9926.01
9925.91
9925.81
9925.71
9925.62
9925.53
9925.45
9925.38
9925.29
9925.15
9924.92
9924.55
9924.06
9923.58
9923.21
9922.96
9922.76
9922.59
9922.44
9922.33
9922.27
9922.23
9922.2
9922.18
9922.16
9922.13
9922.09
9922.05
9922.01
9921.97
9921.94
9921.9
9921.87
9921.86
9921.89
9921.95
9922.06
9922.24
9922.5
9922.81
9923.07
9923.27
9923.42
9923.54
9923.65
9923.73
9923.8
9923.85
9923.89
9923.94
9924.03
9924.22
9924.56
9924.97
9925.38
9925.71
9926
9926.32
9926.74
9927.19
9927.56
9927.83
9928.04
9928.27
9928.58
9929
9929.46
9929.91
9930.35
9930.9
9931.89
9934.22
9939.68
9949.49
9960.86
9968.93
9972.6
9973.91
9974.42
9974.68
9974.88
9975.08
9975.31
9975.64
9976.25
9977.7
9981.01
9986.34
9991.88
9876.48
9876.12
9875.98
9875.92
9875.88
9875.78
9875.42
9874.38
9872.57
9870.65
9869.24
9868.44
9868.07
9867.91
9867.85
9867.81
9867.77
9867.69
9867.53
9867.31
9867.07
9866.81
9866.35
9865.39
9864.03
9862.85
9862.13
9861.7
9861.37
9861.07
9860.76
9860.43
9860.03
9859.56
9859.06
9858.68
9858.47
9858.35
9858.27
9858.17
9857.99
9857.64
9857.04
9856.31
9855.7
9855.34
9855.13
9854.92
9854.58
9853.9
9852.82
9851.6
9850.54
9849.64
9848.8
9848.11
9847.71
9847.52
9847.39
9847.27
9847.09
9846.86
9846.61
9846.41
9846.23
9846.04
9845.79
9845.48
9845.14
9844.8
9844.46
9844.12
9843.81
9843.52
9843.25
9842.97
9842.66
9842.3
9841.89
9841.42
9840.75
9839.71
9838.34
9837.06
9836.13
9835.47
9834.91
9834.35
9833.87
9833.57
9833.42
9833.3
9833.18
9833.02
9832.86
9832.73
9832.63
9832.52
9832.37
9832.2
9832.06
9831.96
9831.9
9831.82
9831.61
9831.04
9830.02
9829.02
9828.47
9828.25
9828.14
9828.05
9827.93
9827.81
9827.7
9827.6
9827.52
9827.46
9827.39
9827.31
9827.17
9826.92
9826.51
9826
9825.54
9825.19
9824.94
9824.74
9824.57
9824.44
9824.34
9824.27
9824.23
9824.2
9824.18
9824.16
9824.12
9824.08
9824.04
9824
9823.96
9823.93
9823.89
9823.85
9823.83
9823.84
9823.9
9824.02
9824.24
9824.54
9824.87
9825.14
9825.33
9825.46
9825.54
9825.62
9825.69
9825.77
9825.83
9825.88
9825.94
9826.04
9826.23
9826.53
9826.88
9827.24
9827.61
9827.98
9828.41
9828.89
9829.33
9829.66
9829.89
9830.09
9830.3
9830.58
9830.94
9831.36
9831.81
9832.27
9832.82
9833.76
9835.91
9840.82
9849.62
9860.39
9869
9873.57
9875.44
9876.2
9876.58
9876.85
9877.1
9877.38
9877.7
9878.11
9878.91
9881.04
9885.66
9891.54
9778.76
9778.22
9778.02
9777.95
9777.88
9777.7
9777.13
9775.81
9773.94
9772.19
9771.01
9770.36
9770.06
9769.93
9769.86
9769.81
9769.75
9769.64
9769.44
9769.19
9768.96
9768.75
9768.46
9767.84
9766.68
9765.33
9764.31
9763.69
9763.29
9762.99
9762.72
9762.46
9762.14
9761.71
9761.2
9760.77
9760.5
9760.37
9760.27
9760.16
9759.96
9759.59
9759.02
9758.32
9757.69
9757.26
9756.97
9756.67
9756.2
9755.41
9754.39
9753.43
9752.72
9752.12
9751.44
9750.65
9749.99
9749.59
9749.38
9749.23
9749.07
9748.89
9748.7
9748.52
9748.33
9748.11
9747.82
9747.48
9747.11
9746.75
9746.42
9746.11
9745.8
9745.49
9745.21
9744.95
9744.69
9744.39
9743.98
9743.33
9742.22
9740.83
9739.7
9738.93
9738.26
9737.58
9736.87
9736.23
9735.77
9735.52
9735.38
9735.26
9735.12
9734.97
9734.85
9734.76
9734.68
9734.58
9734.43
9734.23
9734.06
9733.95
9733.89
9733.82
9733.63
9733.02
9731.9
9730.87
9730.4
9730.24
9730.16
9730.08
9729.98
9729.84
9729.71
9729.6
9729.52
9729.45
9729.39
9729.3
9729.14
9728.85
9728.41
9727.91
9727.47
9727.13
9726.87
9726.68
9726.53
9726.42
9726.34
9726.28
9726.24
9726.21
9726.18
9726.15
9726.12
9726.08
9726.04
9725.99
9725.94
9725.89
9725.84
9725.8
9725.76
9725.74
9725.78
9725.91
9726.16
9726.53
9726.93
9727.24
9727.42
9727.5
9727.54
9727.57
9727.63
9727.7
9727.78
9727.84
9727.91
9728.04
9728.26
9728.54
9728.85
9729.15
9729.5
9729.92
9730.42
9730.93
9731.36
9731.67
9731.91
9732.13
9732.36
9732.64
9732.98
9733.36
9733.79
9734.26
9734.88
9735.92
9738.02
9742.14
9748.74
9756.89
9764.72
9770.75
9774.61
9776.71
9777.78
9778.41
9778.91
9779.32
9779.68
9780.02
9780.56
9781.91
9785.38
9790.92
9681.53
9680.57
9680.19
9680.02
9679.83
9679.45
9678.63
9677.25
9675.54
9673.95
9672.86
9672.29
9672.05
9671.94
9671.87
9671.81
9671.72
9671.54
9671.29
9671.04
9670.84
9670.68
9670.47
9670.02
9669.05
9667.64
9666.4
9665.62
9665.18
9664.91
9664.71
9664.52
9664.29
9663.94
9663.45
9662.94
9662.59
9662.4
9662.27
9662.11
9661.86
9661.44
9660.83
9660.16
9659.56
9659.09
9658.71
9658.31
9657.76
9657
9656.13
9655.35
9654.76
9654.28
9653.77
9653.13
9652.41
9651.82
9651.46
9651.22
9651.03
9650.87
9650.74
9650.63
9650.48
9650.26
9649.95
9649.54
9649.1
9648.69
9648.35
9648.04
9647.72
9647.43
9647.18
9646.96
9646.74
9646.42
9645.85
9644.8
9643.28
9642.01
9641.35
9640.97
9640.53
9639.84
9638.97
9638.2
9637.74
9637.5
9637.36
9637.22
9637.06
9636.93
9636.84
9636.78
9636.72
9636.62
9636.46
9636.26
9636.09
9635.97
9635.9
9635.81
9635.57
9634.89
9633.77
9632.82
9632.39
9632.24
9632.17
9632.09
9631.98
9631.84
9631.71
9631.6
9631.52
9631.45
9631.36
9631.22
9630.97
9630.59
9630.13
9629.71
9629.36
9629.06
9628.82
9628.63
9628.49
9628.4
9628.33
9628.28
9628.24
9628.21
9628.18
9628.15
9628.11
9628.06
9628
9627.94
9627.87
9627.8
9627.74
9627.67
9627.62
9627.6
9627.63
9627.75
9627.99
9628.4
9628.9
9629.28
9629.45
9629.5
9629.52
9629.55
9629.59
9629.65
9629.72
9629.79
9629.86
9629.97
9630.17
9630.47
9630.8
9631.12
9631.45
9631.84
9632.31
9632.82
9633.27
9633.62
9633.91
9634.16
9634.44
9634.75
9635.1
9635.49
9635.91
9636.4
9637.08
9638.27
9640.64
9644.83
9650.2
9655.27
9659.89
9664.95
9670.49
9675.1
9677.8
9679.23
9680.18
9680.92
9681.45
9681.85
9682.33
9683.35
9686.01
9690.85
9586.33
9583.79
9582.75
9582.24
9581.81
9581.22
9580.33
9579.11
9577.62
9576.07
9574.9
9574.29
9574.04
9573.93
9573.86
9573.78
9573.65
9573.44
9573.19
9572.97
9572.8
9572.66
9572.46
9572.04
9571.12
9569.72
9568.4
9567.58
9567.14
9566.89
9566.72
9566.56
9566.36
9566.07
9565.62
9565.11
9564.69
9564.43
9564.25
9564.03
9563.69
9563.15
9562.45
9561.77
9561.25
9560.85
9560.48
9560.08
9559.58
9558.94
9558.19
9557.45
9556.84
9556.34
9555.83
9555.24
9554.6
9554.01
9553.56
9553.24
9553.01
9552.86
9552.77
9552.7
9552.59
9552.39
9552.03
9551.5
9550.97
9550.56
9550.23
9549.91
9549.59
9549.3
9549.09
9548.92
9548.73
9548.4
9547.62
9546.21
9544.68
9543.69
9543.24
9542.98
9542.64
9542.03
9541.12
9540.28
9539.77
9539.51
9539.33
9539.17
9539.01
9538.9
9538.84
9538.79
9538.72
9538.61
9538.44
9538.27
9538.13
9538.03
9537.93
9537.79
9537.47
9536.79
9535.8
9534.92
9534.45
9534.25
9534.13
9534.02
9533.89
9533.76
9533.63
9533.53
9533.43
9533.3
9533.1
9532.82
9532.51
9532.17
9531.82
9531.5
9531.22
9530.95
9530.72
9530.54
9530.43
9530.36
9530.31
9530.27
9530.23
9530.18
9530.12
9530.03
9529.93
9529.84
9529.79
9529.75
9529.71
9529.66
9529.59
9529.53
9529.49
9529.48
9529.52
9529.62
9529.83
9530.23
9530.8
9531.24
9531.43
9531.49
9531.51
9531.53
9531.57
9531.63
9531.7
9531.76
9531.81
9531.87
9531.99
9532.23
9532.58
9532.98
9533.39
9533.81
9534.28
9534.78
9535.24
9535.63
9535.94
9536.22
9536.52
9536.88
9537.3
9537.76
9538.27
9538.87
9539.73
9541.22
9544.05
9548.51
9553.22
9556.54
9558.84
9561.63
9566.32
9572.1
9576.4
9578.71
9580.1
9581.23
9582.14
9582.78
9583.29
9584.1
9586.24
9590.52
9490.88
9487.4
9485.73
9484.77
9484.01
9483.18
9482.2
9481.08
9479.81
9478.37
9477.09
9476.34
9476.03
9475.91
9475.82
9475.73
9475.58
9475.38
9475.16
9474.96
9474.8
9474.65
9474.46
9474.09
9473.3
9471.99
9470.6
9469.66
9469.17
9468.9
9468.72
9468.56
9468.36
9468.05
9467.6
9467.12
9466.74
9466.46
9466.21
9465.87
9465.33
9464.58
9463.86
9463.32
9462.97
9462.68
9462.35
9461.98
9461.54
9461.03
9460.39
9459.68
9459.02
9458.46
9457.95
9457.42
9456.83
9456.21
9455.69
9455.31
9455.06
9454.9
9454.81
9454.73
9454.63
9454.41
9453.93
9453.3
9452.75
9452.34
9452
9451.63
9451.28
9451.04
9450.88
9450.77
9450.64
9450.38
9449.69
9448.36
9446.8
9445.76
9445.29
9445.03
9444.73
9444.16
9443.26
9442.37
9441.8
9441.5
9441.29
9441.11
9440.97
9440.88
9440.82
9440.77
9440.7
9440.56
9440.38
9440.23
9440.13
9440.05
9439.94
9439.76
9439.41
9438.8
9437.96
9437.12
9436.53
9436.19
9435.98
9435.83
9435.69
9435.55
9435.38
9435.19
9434.94
9434.65
9434.32
9434.01
9433.79
9433.63
9433.44
9433.2
9432.94
9432.69
9432.49
9432.36
9432.28
9432.24
9432.2
9432.16
9432.09
9431.96
9431.79
9431.62
9431.48
9431.41
9431.4
9431.43
9431.46
9431.47
9431.45
9431.41
9431.38
9431.37
9431.4
9431.47
9431.65
9432.03
9432.61
9433.11
9433.35
9433.42
9433.42
9433.41
9433.42
9433.5
9433.63
9433.73
9433.79
9433.83
9433.91
9434.05
9434.3
9434.66
9435.1
9435.63
9436.22
9436.82
9437.33
9437.73
9438.04
9438.33
9438.68
9439.22
9440.06
9441.2
9442.31
9443.16
9443.97
9445.3
9447.91
9451.91
9455.84
9458.37
9459.91
9461.53
9464.37
9468.65
9472.66
9475.11
9476.38
9477.11
9477.64
9478.3
9479.38
9481.16
9484.31
9489.4
9394.1
9390.66
9388.73
9387.48
9386.39
9385.26
9384.08
9382.9
9381.64
9380.26
9379.08
9378.39
9378.09
9377.93
9377.82
9377.7
9377.53
9377.32
9377.09
9376.9
9376.75
9376.61
9376.44
9376.15
9375.52
9374.38
9373.05
9372.06
9371.49
9371.12
9370.82
9370.53
9370.2
9369.82
9369.43
9369.09
9368.78
9368.49
9368.14
9367.62
9366.88
9366.1
9365.49
9365.1
9364.83
9364.56
9364.22
9363.83
9363.46
9363.08
9362.63
9362.06
9361.41
9360.8
9360.27
9359.78
9359.23
9358.61
9357.99
9357.51
9357.2
9356.99
9356.84
9356.69
9356.48
9356.09
9355.51
9354.92
9354.44
9354.03
9353.63
9353.26
9352.98
9352.83
9352.75
9352.67
9352.57
9352.36
9351.89
9350.94
9349.56
9348.34
9347.66
9347.3
9346.96
9346.4
9345.54
9344.61
9343.93
9343.53
9343.27
9343.08
9342.95
9342.87
9342.81
9342.74
9342.64
9342.48
9342.31
9342.19
9342.1
9342.02
9341.89
9341.65
9341.23
9340.6
9339.84
9339.11
9338.53
9338.12
9337.84
9337.63
9337.44
9337.19
9336.88
9336.54
9336.2
9335.88
9335.57
9335.32
9335.15
9335.04
9334.92
9334.75
9334.56
9334.39
9334.26
9334.16
9334.09
9334.02
9333.93
9333.8
9333.63
9333.43
9333.25
9333.12
9333.06
9333.05
9333.07
9333.12
9333.17
9333.21
9333.23
9333.24
9333.24
9333.25
9333.27
9333.32
9333.43
9333.73
9334.26
9334.79
9335.06
9335.08
9334.97
9334.82
9334.74
9334.81
9335.04
9335.35
9335.58
9335.71
9335.82
9335.96
9336.15
9336.43
9336.82
9337.34
9337.99
9338.67
9339.28
9339.75
9340.12
9340.48
9341.04
9342.14
9344.07
9346.2
9347.66
9348.38
9348.77
9349.41
9351.22
9354.5
9357.84
9359.97
9361.19
9362.27
9363.82
9366.07
9368.4
9369.98
9370.55
9370.39
9370.22
9370.77
9372.52
9375.74
9380.88
9387.98
9297.6
9293.73
9291.52
9290.02
9288.65
9287.25
9285.87
9284.55
9283.2
9281.89
9280.93
9280.43
9280.19
9280.02
9279.86
9279.67
9279.43
9279.17
9278.96
9278.8
9278.67
9278.55
9278.39
9278.07
9277.31
9276.12
9275.07
9274.42
9274.01
9273.58
9273.05
9272.49
9271.99
9271.61
9271.35
9271.13
9270.85
9270.49
9269.97
9269.34
9268.69
9268.11
9267.56
9267.12
9266.78
9266.42
9265.98
9265.57
9265.28
9265.05
9264.8
9264.44
9263.95
9263.39
9262.84
9262.33
9261.79
9261.17
9260.47
9259.84
9259.38
9259.06
9258.78
9258.47
9258.07
9257.55
9257.01
9256.54
9256.15
9255.78
9255.42
9255.12
9254.92
9254.81
9254.74
9254.67
9254.54
9254.3
9253.84
9253.08
9252.11
9251.16
9250.43
9249.87
9249.33
9248.64
9247.79
9246.93
9246.24
9245.73
9245.37
9245.11
9244.94
9244.81
9244.72
9244.63
9244.52
9244.37
9244.24
9244.13
9244.04
9243.91
9243.69
9243.32
9242.79
9242.14
9241.5
9240.95
9240.5
9240.12
9239.76
9239.4
9239.04
9238.67
9238.33
9238.04
9237.79
9237.55
9237.3
9237.03
9236.8
9236.63
9236.49
9236.37
9236.26
9236.18
9236.11
9236.03
9235.95
9235.84
9235.66
9235.43
9235.19
9235.01
9234.91
9234.87
9234.86
9234.86
9234.88
9234.89
9234.92
9234.95
9234.99
9235.04
9235.09
9235.14
9235.17
9235.21
9235.25
9235.38
9235.67
9236.06
9236.34
9236.39
9236.26
9236.11
9236.03
9236.04
9236.2
9236.52
9236.9
9237.27
9237.57
9237.81
9238.07
9238.38
9238.78
9239.25
9239.78
9240.37
9240.99
9241.59
9242.14
9242.82
9244.01
9246.05
9248.55
9250.45
9251.41
9251.91
9252.3
9252.89
9254.19
9256.41
9258.75
9260.46
9261.61
9262.55
9263.59
9264.8
9265.94
9266.64
9266.8
9266.68
9266.77
9267.45
9269
9272.11
9277.87
9286.58
9201.23
9196.69
9193.91
9192.01
9190.39
9188.91
9187.61
9186.41
9185.19
9183.98
9183.03
9182.5
9182.24
9182.05
9181.83
9181.55
9181.26
9181.01
9180.85
9180.73
9180.63
9180.48
9180.18
9179.49
9178.33
9177.29
9176.78
9176.55
9176.32
9175.91
9175.24
9174.47
9173.89
9173.56
9173.36
9173.14
9172.83
9172.35
9171.77
9171.25
9170.86
9170.47
9169.95
9169.34
9168.72
9168.12
9167.58
9167.25
9167.09
9167
9166.89
9166.7
9166.39
9165.99
9165.55
9165.09
9164.55
9163.84
9162.98
9162.14
9161.48
9161
9160.61
9160.21
9159.77
9159.28
9158.8
9158.39
9158.05
9157.73
9157.43
9157.17
9156.98
9156.86
9156.77
9156.66
9156.46
9156.12
9155.6
9154.95
9154.31
9153.71
9153.12
9152.46
9151.69
9150.81
9149.89
9149.06
9148.42
9147.93
9147.53
9147.18
9146.9
9146.72
9146.59
9146.5
9146.4
9146.29
9146.16
9146.04
9145.89
9145.65
9145.29
9144.81
9144.28
9143.75
9143.28
9142.87
9142.47
9142.05
9141.59
9141.1
9140.66
9140.33
9140.1
9139.9
9139.69
9139.46
9139.18
9138.88
9138.6
9138.39
9138.24
9138.16
9138.11
9138.07
9138.03
9137.97
9137.88
9137.74
9137.53
9137.28
9137.05
9136.91
9136.84
9136.81
9136.79
9136.78
9136.78
9136.78
9136.79
9136.81
9136.84
9136.88
9136.94
9137
9137.05
9137.07
9137.08
9137.09
9137.15
9137.34
9137.63
9137.85
9137.88
9137.86
9137.85
9137.85
9137.87
9137.97
9138.23
9138.65
9139.13
9139.55
9139.95
9140.37
9140.8
9141.21
9141.63
9142.1
9142.68
9143.37
9144.2
9145.42
9147.35
9149.66
9151.54
9152.74
9153.51
9154.12
9154.82
9155.77
9156.95
9158.24
9159.49
9160.62
9161.58
9162.44
9163.38
9164.41
9165.32
9165.93
9166.29
9166.61
9167.04
9167.72
9168.92
9171.36
9176.55
9185.64
9105.2
9099.39
9095.88
9093.6
9091.88
9090.49
9089.36
9088.36
9087.37
9086.34
9085.4
9084.72
9084.3
9084
9083.71
9083.4
9083.13
9082.94
9082.81
9082.72
9082.6
9082.35
9081.74
9080.61
9079.47
9078.91
9078.72
9078.6
9078.4
9077.94
9077.13
9076.3
9075.79
9075.53
9075.34
9075.11
9074.75
9074.24
9073.73
9073.34
9073.07
9072.8
9072.39
9071.69
9070.73
9069.83
9069.29
9069.08
9069.01
9068.97
9068.92
9068.83
9068.65
9068.4
9068.12
9067.76
9067.23
9066.44
9065.39
9064.33
9063.5
9062.94
9062.54
9062.17
9061.75
9061.27
9060.79
9060.37
9060.01
9059.69
9059.41
9059.18
9059.02
9058.92
9058.82
9058.67
9058.42
9058.01
9057.5
9056.96
9056.46
9055.99
9055.48
9054.87
9054.07
9053.05
9051.94
9050.99
9050.35
9049.93
9049.58
9049.22
9048.89
9048.66
9048.53
9048.44
9048.35
9048.23
9048.09
9047.9
9047.66
9047.32
9046.89
9046.41
9045.94
9045.52
9045.17
9044.85
9044.48
9044.01
9043.45
9042.92
9042.5
9042.24
9042.07
9041.9
9041.69
9041.4
9041.06
9040.72
9040.42
9040.22
9040.13
9040.09
9040.07
9040.05
9040.02
9039.97
9039.87
9039.72
9039.5
9039.25
9039.02
9038.88
9038.82
9038.79
9038.77
9038.76
9038.76
9038.76
9038.76
9038.78
9038.8
9038.83
9038.87
9038.91
9038.95
9038.97
9038.97
9038.97
9039
9039.1
9039.34
9039.63
9039.79
9039.82
9039.83
9039.83
9039.83
9039.86
9039.96
9040.23
9040.67
9041.19
9041.75
9042.28
9042.74
9043.11
9043.46
9043.88
9044.43
9045.18
9046.28
9047.93
9050.09
9052.13
9053.6
9054.64
9055.47
9056.31
9057.31
9058.42
9059.44
9060.34
9061.17
9061.94
9062.63
9063.33
9064.18
9065.26
9066.35
9067.17
9067.69
9068.08
9068.5
9069.11
9070.14
9072.24
9076.77
9085.26
9006.55
9001.14
8997.44
8994.92
8993.2
8992.01
8991.08
8990.24
8989.43
8988.65
8987.95
8987.3
8986.69
8986.15
8985.69
8985.34
8985.08
8984.92
8984.81
8984.71
8984.56
8984.23
8983.44
8982.27
8981.34
8980.92
8980.75
8980.62
8980.35
8979.71
8978.78
8978.07
8977.71
8977.51
8977.34
8977.11
8976.76
8976.3
8975.81
8975.42
8975.14
8974.89
8974.54
8973.86
8972.8
8971.76
8971.21
8971.04
8970.99
8970.96
8970.92
8970.85
8970.73
8970.56
8970.35
8970.06
8969.58
8968.77
8967.61
8966.41
8965.51
8964.96
8964.6
8964.26
8963.84
8963.32
8962.78
8962.31
8961.92
8961.6
8961.33
8961.13
8961.01
8960.92
8960.83
8960.68
8960.42
8960.04
8959.62
8959.21
8958.79
8958.35
8957.86
8957.26
8956.44
8955.3
8954
8952.95
8952.32
8951.94
8951.64
8951.29
8950.91
8950.62
8950.44
8950.33
8950.23
8950.11
8949.95
8949.75
8949.46
8949.09
8948.63
8948.15
8947.69
8947.34
8947.07
8946.84
8946.53
8946.07
8945.44
8944.81
8944.36
8944.13
8944
8943.89
8943.72
8943.39
8942.95
8942.54
8942.28
8942.15
8942.11
8942.09
8942.07
8942.05
8942.02
8941.96
8941.84
8941.64
8941.37
8941.06
8940.83
8940.74
8940.73
8940.74
8940.74
8940.73
8940.72
8940.72
8940.72
8940.73
8940.76
8940.8
8940.84
8940.88
8940.91
8940.92
8940.92
8940.93
8940.95
8941.02
8941.2
8941.48
8941.71
8941.8
8941.82
8941.82
8941.82
8941.83
8941.86
8941.96
8942.19
8942.57
8943.11
8943.72
8944.28
8944.72
8945.1
8945.51
8946.04
8946.85
8948.13
8950
8952.17
8954.11
8955.59
8956.75
8957.8
8958.89
8960.02
8961.02
8961.79
8962.44
8963.09
8963.77
8964.41
8965.02
8965.75
8966.73
8967.85
8968.79
8969.41
8969.83
8970.25
8970.86
8971.99
8974.19
8978.23
8985.33
8905.08
8901.86
8898.55
8895.95
8894.36
8893.45
8892.81
8892.2
8891.55
8890.94
8890.46
8890.04
8889.56
8888.94
8888.23
8887.6
8887.17
8886.93
8886.79
8886.68
8886.52
8886.18
8885.48
8884.47
8883.59
8883.1
8882.85
8882.61
8882.16
8881.37
8880.52
8879.97
8879.68
8879.5
8879.32
8879.1
8878.81
8878.42
8877.96
8877.53
8877.17
8876.84
8876.41
8875.74
8874.81
8873.86
8873.27
8873.05
8872.98
8872.95
8872.91
8872.84
8872.73
8872.59
8872.41
8872.14
8871.67
8870.82
8869.57
8868.32
8867.45
8866.97
8866.65
8866.35
8865.94
8865.38
8864.77
8864.24
8863.83
8863.52
8863.28
8863.12
8863.01
8862.92
8862.82
8862.64
8862.35
8862.01
8861.69
8861.4
8861.07
8860.66
8860.15
8859.47
8858.53
8857.29
8855.99
8854.98
8854.38
8854.02
8853.73
8853.36
8852.87
8852.41
8852.12
8851.99
8851.91
8851.83
8851.71
8851.5
8851.16
8850.7
8850.21
8849.76
8849.41
8849.16
8848.98
8848.78
8848.48
8847.99
8847.3
8846.64
8846.22
8846.03
8845.93
8845.86
8845.73
8845.43
8844.94
8844.48
8844.22
8844.12
8844.09
8844.07
8844.06
8844.02
8843.92
8843.71
8843.43
8843.14
8842.86
8842.62
8842.51
8842.51
8842.57
8842.63
8842.64
8842.59
8842.5
8842.43
8842.43
8842.48
8842.57
8842.66
8842.74
8842.79
8842.82
8842.84
8842.84
8842.85
8842.87
8842.92
8843.03
8843.25
8843.52
8843.7
8843.77
8843.79
8843.79
8843.77
8843.77
8843.81
8843.92
8844.12
8844.46
8844.94
8845.46
8845.91
8846.28
8846.61
8847.05
8847.82
8849.29
8851.55
8854.11
8856.44
8858.33
8859.78
8860.95
8861.97
8862.85
8863.54
8864.04
8864.47
8864.95
8865.5
8866.05
8866.57
8867.1
8867.77
8868.62
8869.51
8870.3
8870.99
8871.68
8872.64
8874.2
8876.62
8880.1
8885.7
8804.82
8802.51
8799.72
8797.4
8795.98
8795.19
8794.64
8794.11
8793.55
8793.06
8792.69
8792.41
8792.14
8791.76
8791.18
8790.45
8789.77
8789.23
8788.88
8788.66
8788.44
8788.06
8787.47
8786.8
8786.2
8785.73
8785.32
8784.86
8784.19
8783.32
8782.5
8781.96
8781.65
8781.43
8781.24
8781.03
8780.79
8780.49
8780.1
8779.65
8779.19
8778.72
8778.2
8777.58
8776.85
8776.06
8775.41
8775.1
8774.99
8774.94
8774.89
8774.82
8774.72
8774.59
8774.42
8774.17
8773.69
8772.77
8771.44
8770.18
8769.38
8768.96
8768.68
8768.39
8767.99
8767.41
8766.72
8766.14
8765.75
8765.49
8765.3
8765.15
8765.02
8764.91
8764.76
8764.54
8764.24
8763.96
8763.71
8763.46
8763.16
8762.75
8762.16
8761.34
8760.21
8758.92
8757.77
8756.94
8756.42
8756.08
8755.76
8755.32
8754.7
8754.07
8753.7
8753.57
8753.52
8753.48
8753.36
8753.07
8752.61
8752.14
8751.76
8751.48
8751.27
8751.09
8750.91
8750.67
8750.28
8749.73
8749.1
8748.54
8748.17
8747.99
8747.89
8747.8
8747.67
8747.39
8746.91
8746.39
8746.08
8745.95
8745.91
8745.9
8745.86
8745.72
8745.41
8744.99
8744.64
8744.42
8744.31
8744.26
8744.26
8744.3
8744.36
8744.39
8744.35
8744.23
8744.11
8744.07
8744.09
8744.15
8744.26
8744.38
8744.48
8744.56
8744.62
8744.66
8744.68
8744.69
8744.71
8744.75
8744.83
8744.98
8745.19
8745.39
8745.52
8745.58
8745.61
8745.63
8745.66
8745.73
8745.85
8746.03
8746.3
8746.64
8747
8747.32
8747.59
8747.81
8748.06
8748.58
8749.87
8752.53
8756.09
8759.34
8761.62
8763.03
8763.95
8764.66
8765.25
8765.72
8766.09
8766.44
8766.84
8767.31
8767.79
8768.21
8768.58
8768.96
8769.44
8770.1
8770.94
8771.88
8772.94
8774.28
8776.08
8778.42
8781.46
8786.13
8705.23
8703.33
8701.17
8699.3
8697.99
8697.13
8696.51
8695.95
8695.45
8695.04
8694.73
8694.48
8694.24
8693.97
8693.59
8693.1
8692.48
8691.81
8691.24
8690.79
8690.35
8689.84
8689.32
8688.95
8688.69
8688.42
8688.05
8687.47
8686.62
8685.58
8684.61
8683.94
8683.54
8683.3
8683.11
8682.94
8682.75
8682.49
8682.15
8681.73
8681.25
8680.74
8680.21
8679.66
8679.04
8678.32
8677.63
8677.2
8677.01
8676.93
8676.86
8676.78
8676.67
8676.52
8676.34
8676.08
8675.67
8674.94
8673.81
8672.51
8671.56
8671.04
8670.72
8670.4
8669.93
8669.25
8668.51
8667.97
8667.67
8667.5
8667.35
8667.2
8667.04
8666.85
8666.64
8666.41
8666.18
8665.96
8665.76
8665.53
8665.21
8664.66
8663.79
8662.62
8661.35
8660.24
8659.42
8658.84
8658.41
8658.05
8657.66
8657.1
8656.37
8655.74
8655.42
8655.31
8655.26
8655.2
8655.02
8654.64
8654.17
8653.83
8653.62
8653.45
8653.27
8653.07
8652.83
8652.49
8652.03
8651.49
8650.96
8650.5
8650.15
8649.92
8649.79
8649.67
8649.5
8649.18
8648.68
8648.16
8647.83
8647.68
8647.61
8647.54
8647.41
8647.12
8646.69
8646.28
8646.03
8645.91
8645.87
8645.83
8645.8
8645.77
8645.78
8645.8
8645.84
8645.87
8645.91
8645.94
8645.98
8646.02
8646.09
8646.17
8646.26
8646.35
8646.42
8646.48
8646.52
8646.54
8646.55
8646.58
8646.63
8646.71
8646.82
8646.94
8647.06
8647.18
8647.31
8647.43
8647.54
8647.65
8647.79
8648
8648.29
8648.62
8648.92
8649.18
8649.4
8649.58
8649.78
8650.12
8651.05
8653.51
8657.61
8661.56
8664.03
8665.33
8666.11
8666.71
8667.23
8667.66
8668.02
8668.36
8668.77
8669.23
8669.7
8670.1
8670.44
8670.77
8671.16
8671.68
8672.4
8673.34
8674.51
8675.97
8677.78
8679.91
8682.55
8686.43
8605.91
8604.45
8602.82
8601.27
8600.02
8599.1
8598.41
8597.86
8597.4
8597.03
8596.73
8596.47
8596.22
8595.95
8595.6
8595.16
8594.64
8594.05
8593.49
8592.97
8592.41
8591.79
8591.28
8590.99
8590.82
8590.68
8590.46
8590.02
8589.18
8587.98
8586.76
8585.9
8585.43
8585.17
8585
8584.85
8584.67
8584.44
8584.14
8583.81
8583.47
8583.09
8582.62
8582.03
8581.34
8580.53
8579.76
8579.27
8579.03
8578.91
8578.81
8578.7
8578.56
8578.38
8578.14
8577.87
8577.55
8577.14
8576.49
8575.5
8574.49
8573.78
8573.29
8572.77
8572.04
8571.15
8570.38
8569.91
8569.67
8569.52
8569.38
8569.22
8569
8568.75
8568.53
8568.35
8568.18
8567.99
8567.78
8567.48
8566.92
8565.88
8564.47
8563.13
8562.15
8561.52
8561.09
8560.71
8560.32
8559.89
8559.35
8558.67
8557.97
8557.48
8557.24
8557.14
8557.08
8556.99
8556.78
8556.43
8556.07
8555.82
8555.66
8555.5
8555.31
8555.05
8554.7
8554.26
8553.77
8553.27
8552.79
8552.38
8552.05
8551.81
8551.63
8551.48
8551.29
8550.98
8550.5
8550.02
8549.7
8549.54
8549.42
8549.26
8548.98
8548.53
8548.05
8547.72
8547.54
8547.43
8547.32
8547.19
8547.05
8546.96
8546.93
8547.02
8547.26
8547.57
8547.79
8547.88
8547.93
8547.98
8548.03
8548.11
8548.19
8548.27
8548.33
8548.39
8548.43
8548.45
8548.46
8548.47
8548.49
8548.51
8548.56
8548.62
8548.71
8548.85
8549.03
8549.21
8549.36
8549.5
8549.68
8549.93
8550.27
8550.61
8550.88
8551.11
8551.31
8551.52
8551.76
8552.14
8553.03
8555.08
8558.47
8562.2
8565.09
8566.87
8567.89
8568.59
8569.14
8569.58
8569.95
8570.32
8570.74
8571.18
8571.59
8571.94
8572.27
8572.62
8573.01
8573.49
8574.11
8574.93
8576.04
8577.54
8579.32
8581.24
8583.42
8586.46
8506.52
8505.53
8504.39
8503.16
8502.03
8501.12
8500.43
8499.89
8499.44
8499.05
8498.72
8498.45
8498.2
8497.92
8497.55
8497.03
8496.41
8495.83
8495.4
8495.05
8494.62
8494
8493.4
8493.04
8492.86
8492.74
8492.6
8492.29
8491.58
8490.35
8488.95
8487.93
8487.4
8487.12
8486.94
8486.77
8486.57
8486.32
8486.06
8485.84
8485.66
8485.46
8485.14
8484.59
8483.73
8482.67
8481.76
8481.26
8481.04
8480.9
8480.78
8480.62
8480.41
8480.14
8479.86
8479.6
8479.37
8479.12
8478.75
8478.18
8477.47
8476.85
8476.32
8475.65
8474.7
8473.55
8472.6
8472.02
8471.73
8471.55
8471.38
8471.16
8470.89
8470.63
8470.44
8470.29
8470.14
8469.93
8469.59
8469.01
8468.01
8466.54
8465.02
8463.94
8463.36
8463.03
8462.77
8462.48
8462.1
8461.59
8460.96
8460.28
8459.71
8459.35
8459.15
8459.05
8458.97
8458.85
8458.65
8458.37
8458.09
8457.87
8457.71
8457.55
8457.32
8456.97
8456.52
8456.03
8455.53
8455.06
8454.62
8454.23
8453.91
8453.65
8453.45
8453.3
8453.14
8452.89
8452.48
8452.01
8451.65
8451.43
8451.26
8451.01
8450.56
8449.93
8449.39
8449.07
8448.92
8448.83
8448.71
8448.56
8448.43
8448.34
8448.32
8448.38
8448.61
8448.99
8449.38
8449.63
8449.76
8449.85
8449.94
8450.04
8450.14
8450.22
8450.27
8450.31
8450.33
8450.35
8450.35
8450.35
8450.36
8450.4
8450.46
8450.54
8450.61
8450.71
8450.85
8451.01
8451.16
8451.31
8451.5
8451.79
8452.15
8452.5
8452.78
8453.01
8453.24
8453.53
8453.97
8454.63
8455.63
8457.1
8459.06
8461.59
8464.47
8466.99
8468.68
8469.78
8470.58
8471.23
8471.77
8472.27
8472.73
8473.13
8473.45
8473.72
8474.02
8474.36
8474.76
8475.2
8475.64
8476.15
8476.92
8478.18
8479.89
8481.76
8483.7
8486.2
8407.1
8406.52
8405.88
8405.11
8404.22
8403.32
8402.59
8402.01
8401.5
8401.01
8400.57
8400.23
8399.94
8399.61
8399.17
8398.59
8398.02
8397.59
8397.33
8397.13
8396.84
8396.32
8395.67
8395.18
8394.93
8394.79
8394.67
8394.42
8393.81
8392.6
8391.12
8390.05
8389.51
8389.21
8388.98
8388.74
8388.49
8388.23
8388
8387.83
8387.69
8387.54
8387.31
8386.85
8385.97
8384.76
8383.76
8383.25
8383.03
8382.89
8382.74
8382.52
8382.21
8381.87
8381.58
8381.37
8381.21
8381.04
8380.77
8380.35
8379.88
8379.46
8379.06
8378.5
8377.57
8376.31
8375.11
8374.28
8373.82
8373.54
8373.29
8372.99
8372.68
8372.44
8372.29
8372.16
8372
8371.69
8371.13
8370.29
8369.15
8367.81
8366.53
8365.62
8365.1
8364.78
8364.51
8364.21
8363.82
8363.33
8362.75
8362.15
8361.65
8361.31
8361.1
8360.98
8360.87
8360.74
8360.57
8360.36
8360.14
8359.94
8359.76
8359.55
8359.25
8358.84
8358.37
8357.86
8357.34
8356.82
8356.34
8355.91
8355.56
8355.33
8355.18
8355.08
8354.99
8354.8
8354.43
8353.93
8353.48
8353.16
8352.89
8352.52
8351.96
8351.33
8350.88
8350.65
8350.52
8350.41
8350.29
8350.17
8350.08
8350.03
8350.01
8350.04
8350.14
8350.38
8350.72
8351.02
8351.21
8351.34
8351.44
8351.55
8351.65
8351.74
8351.82
8351.89
8351.95
8351.98
8352
8352.03
8352.1
8352.22
8352.36
8352.47
8352.56
8352.67
8352.79
8352.91
8353.02
8353.13
8353.29
8353.51
8353.81
8354.12
8354.41
8354.72
8355.12
8355.68
8356.46
8357.33
8358.15
8358.93
8359.89
8361.36
8363.61
8366.2
8368.4
8369.99
8371.18
8372.17
8373.08
8373.9
8374.52
8374.9
8375.14
8375.36
8375.65
8376.05
8376.53
8376.95
8377.23
8377.48
8377.9
8378.78
8380.27
8382.08
8383.9
8385.96
8308.31
8307.99
8307.64
8307.19
8306.55
8305.68
8304.8
8304.03
8303.34
8302.69
8302.17
8301.8
8301.51
8301.19
8300.78
8300.3
8299.88
8299.57
8299.37
8299.2
8298.97
8298.57
8297.99
8297.44
8297.09
8296.9
8296.76
8296.55
8296.03
8294.91
8293.43
8292.32
8291.74
8291.41
8291.14
8290.85
8290.53
8290.25
8290.04
8289.88
8289.75
8289.58
8289.32
8288.8
8287.84
8286.61
8285.64
8285.14
8284.93
8284.8
8284.64
8284.38
8284.03
8283.68
8283.42
8283.24
8283.1
8282.94
8282.71
8282.35
8281.95
8281.63
8281.38
8281.05
8280.37
8279.18
8277.72
8276.54
8275.87
8275.48
8275.15
8274.79
8274.44
8274.2
8274.05
8273.91
8273.67
8273.2
8272.48
8271.68
8270.8
8269.74
8268.58
8267.62
8267.01
8266.62
8266.28
8265.93
8265.55
8265.15
8264.71
8264.2
8263.7
8263.3
8263.05
8262.89
8262.76
8262.63
8262.49
8262.35
8262.2
8262.04
8261.83
8261.55
8261.16
8260.71
8260.22
8259.71
8259.14
8258.51
8257.91
8257.45
8257.16
8257.02
8256.95
8256.91
8256.84
8256.67
8256.31
8255.78
8255.25
8254.81
8254.38
8253.89
8253.34
8252.9
8252.62
8252.46
8252.34
8252.21
8252.08
8251.97
8251.9
8251.88
8251.87
8251.88
8251.92
8252.04
8252.23
8252.44
8252.56
8252.58
8252.46
8252.24
8252.08
8252.11
8252.36
8252.71
8253.04
8253.26
8253.38
8253.47
8253.6
8253.78
8253.98
8254.16
8254.32
8254.49
8254.65
8254.8
8254.9
8254.98
8255.04
8255.09
8255.15
8255.3
8255.59
8256.07
8256.78
8257.71
8258.7
8259.54
8260.18
8260.74
8261.41
8262.46
8264.09
8266.18
8268.37
8270.27
8271.76
8273.04
8274.31
8275.47
8276.22
8276.58
8276.77
8276.95
8277.23
8277.73
8278.35
8278.84
8279.1
8279.28
8279.54
8280.13
8281.28
8282.87
8284.49
8286.04
8210.09
8209.84
8209.55
8209.18
8208.61
8207.75
8206.66
8205.57
8204.71
8204.11
8203.74
8203.5
8203.3
8203.06
8202.73
8202.35
8201.99
8201.69
8201.47
8201.29
8201.08
8200.75
8200.27
8199.75
8199.34
8199.08
8198.91
8198.71
8198.33
8197.55
8196.38
8195.21
8194.33
8193.77
8193.37
8192.99
8192.63
8192.34
8192.15
8192.01
8191.88
8191.69
8191.32
8190.52
8189.22
8187.92
8187.13
8186.78
8186.63
8186.53
8186.38
8186.16
8185.87
8185.59
8185.35
8185.16
8185.02
8184.86
8184.64
8184.3
8183.93
8183.64
8183.45
8183.24
8182.82
8181.9
8180.47
8179.03
8178.09
8177.51
8177.05
8176.59
8176.16
8175.82
8175.57
8175.3
8174.92
8174.38
8173.79
8173.28
8172.76
8172.03
8170.97
8169.86
8169.03
8168.48
8168.06
8167.69
8167.35
8167.04
8166.69
8166.25
8165.76
8165.33
8165.04
8164.85
8164.71
8164.57
8164.43
8164.31
8164.21
8164.11
8163.95
8163.64
8163.18
8162.63
8162.1
8161.55
8160.95
8160.27
8159.64
8159.21
8159
8158.92