/*--------------------------------*- C++ -*----------------------------------*\
  =========                 |
  \\      /  F ield         | OpenFOAM: The Open Source CFD Toolbox
   \\    /   O peration     | Website:  https://openfoam.org
    \\  /    A nd           | Version:  8
     \\/     M anipulation  |
\*---------------------------------------------------------------------------*/
FoamFile
{
    version     2.0;
    format      ascii;
    class       volScalarField;
    location    "1";
    object      p;
}
// * * * * * * * * * * * * * * * * * * * * * * * * * * * * * * * * * * * * * //

dimensions      [1 -1 -2 0 0 0 0];

internalField   nonuniform List<scalar> 
20000
(
9983.19
9983.01
9982.74
9982.39
9981.98
9981.56
9981.12
9980.6
9979.98
9979.4
9979.02
9978.82
9978.7
9978.61
9978.53
9978.44
9978.36
9978.29
9978.21
9978.11
9977.92
9977.53
9976.84
9975.93
9975.08
9974.49
9974.16
9973.98
9973.87
9973.77
9973.65
9973.48
9973.18
9972.67
9971.85
9970.69
9969.37
9968.16
9967.25
9966.6
9966.11
9965.71
9965.31
9964.81
9964.2
9963.58
9963.08
9962.76
9962.56
9962.41
9962.24
9961.99
9961.63
9961.23
9960.92
9960.75
9960.65
9960.57
9960.42
9959.87
9958.26
9955.99
9954.53
9954.12
9954.03
9954
9953.98
9953.94
9953.89
9953.82
9953.72
9953.56
9953.21
9952.45
9951.13
9949.4
9947.65
9946.35
9945.69
9945.45
9945.39
9945.37
9945.35
9945.34
9945.33
9945.3
9945.24
9945.1
9944.85
9944.54
9944.25
9943.99
9943.69
9943.27
9942.64
9941.84
9941.2
9940.88
9940.73
9940.65
9940.54
9940.32
9939.89
9939.21
9938.38
9937.59
9936.97
9936.56
9936.26
9935.99
9935.68
9935.36
9935.02
9934.63
9934.21
9933.87
9933.63
9933.46
9933.3
9933.1
9932.8
9932.4
9931.97
9931.65
9931.45
9931.3
9931.14
9930.88
9930.45
9929.9
9929.41
9929.11
9928.97
9928.92
9928.91
9928.93
9928.95
9928.98
9929.01
9929.07
9929.22
9929.5
9929.84
9930.08
9930.22
9930.3
9930.35
9930.41
9930.5
9930.69
9931.02
9931.45
9931.84
9932.14
9932.35
9932.5
9932.61
9932.69
9932.75
9932.81
9932.93
9933.24
9933.81
9934.55
9935.38
9936.4
9937.85
9939.79
9941.82
9943.47
9944.73
9945.98
9947.68
9949.99
9952.29
9953.81
9954.57
9954.96
9955.26
9955.6
9956.05
9956.6
9957.15
9957.6
9957.91
9958.09
9958.22
9958.35
9958.6
9959.27
9961.19
9965.58
9971.91
9977.86
9982.27
9985.48
9988.08
9990.23
9992
9993.69
9885.35
9884.96
9884.59
9884.17
9883.75
9883.35
9882.97
9882.57
9882.06
9881.5
9881.08
9880.85
9880.73
9880.64
9880.57
9880.48
9880.39
9880.31
9880.22
9880.11
9879.91
9879.52
9878.86
9877.99
9877.15
9876.54
9876.18
9875.98
9875.86
9875.76
9875.63
9875.42
9875.07
9874.53
9873.73
9872.66
9871.4
9870.16
9869.17
9868.49
9868.02
9867.67
9867.35
9867
9866.53
9865.95
9865.36
9864.91
9864.61
9864.39
9864.18
9863.9
9863.55
9863.2
9862.92
9862.75
9862.64
9862.54
9862.35
9861.79
9860.3
9858.18
9856.7
9856.18
9856.05
9856.01
9855.97
9855.93
9855.87
9855.79
9855.71
9855.59
9855.36
9854.79
9853.61
9851.78
9849.79
9848.36
9847.69
9847.46
9847.4
9847.37
9847.36
9847.35
9847.33
9847.29
9847.2
9847.04
9846.79
9846.5
9846.19
9845.87
9845.52
9845.08
9844.52
9843.87
9843.29
9842.94
9842.76
9842.65
9842.53
9842.31
9841.92
9841.34
9840.6
9839.84
9839.15
9838.6
9838.18
9837.82
9837.49
9837.2
9836.95
9836.65
9836.29
9835.94
9835.66
9835.44
9835.25
9835.02
9834.7
9834.29
9833.88
9833.59
9833.41
9833.28
9833.13
9832.88
9832.42
9831.83
9831.32
9831.04
9830.94
9830.9
9830.9
9830.9
9830.93
9830.95
9830.99
9831.06
9831.22
9831.49
9831.82
9832.08
9832.23
9832.31
9832.36
9832.43
9832.54
9832.72
9832.99
9833.32
9833.66
9833.94
9834.16
9834.34
9834.49
9834.62
9834.73
9834.86
9835.09
9835.52
9836.13
9836.78
9837.49
9838.43
9839.8
9841.61
9843.53
9845.15
9846.48
9847.84
9849.65
9851.98
9854.22
9855.69
9856.46
9856.9
9857.26
9857.65
9858.11
9858.58
9859.04
9859.45
9859.79
9860.02
9860.18
9860.36
9860.73
9861.85
9864.73
9869.96
9875.91
9880.56
9883.82
9886.41
9888.77
9890.89
9892.63
9893.97
9787.44
9786.91
9786.44
9785.97
9785.53
9785.14
9784.79
9784.44
9784.03
9783.56
9783.16
9782.91
9782.77
9782.68
9782.61
9782.53
9782.43
9782.33
9782.21
9782.05
9781.83
9781.48
9780.93
9780.2
9779.45
9778.81
9778.34
9778.03
9777.84
9777.68
9777.5
9777.23
9776.84
9776.31
9775.56
9774.53
9773.25
9771.95
9770.93
9770.25
9769.83
9769.54
9769.33
9769.12
9768.86
9768.46
9767.91
9767.32
9766.83
9766.45
9766.14
9765.87
9765.58
9765.27
9764.97
9764.74
9764.57
9764.4
9764.14
9763.6
9762.42
9760.68
9759.23
9758.53
9758.26
9758.14
9758.04
9757.94
9757.85
9757.76
9757.67
9757.56
9757.36
9756.9
9755.91
9754.24
9752.28
9750.72
9749.89
9749.56
9749.45
9749.41
9749.38
9749.36
9749.32
9749.24
9749.1
9748.91
9748.68
9748.44
9748.17
9747.84
9747.44
9746.96
9746.39
9745.8
9745.31
9745
9744.81
9744.67
9744.52
9744.29
9743.98
9743.53
9742.93
9742.18
9741.33
9740.51
9739.9
9739.52
9739.25
9739.05
9738.87
9738.65
9738.35
9737.98
9737.62
9737.34
9737.12
9736.9
9736.59
9736.18
9735.78
9735.51
9735.36
9735.25
9735.11
9734.86
9734.42
9733.84
9733.32
9733.03
9732.92
9732.89
9732.88
9732.89
9732.89
9732.91
9732.94
9733
9733.12
9733.36
9733.7
9734.02
9734.21
9734.31
9734.38
9734.46
9734.58
9734.75
9734.96
9735.22
9735.51
9735.76
9735.95
9736.08
9736.21
9736.36
9736.56
9736.84
9737.26
9737.79
9738.37
9738.98
9739.69
9740.63
9741.92
9743.56
9745.3
9746.83
9748.15
9749.55
9751.42
9753.82
9756.02
9757.43
9758.2
9758.72
9759.18
9759.64
9760.1
9760.53
9760.92
9761.31
9761.68
9762.01
9762.28
9762.59
9763.17
9764.65
9767.89
9772.95
9778.38
9782.63
9785.62
9787.85
9789.64
9791.09
9792.31
9793.33
9689.42
9688.92
9688.43
9687.92
9687.4
9686.92
9686.52
9686.18
9685.88
9685.58
9685.28
9685.03
9684.83
9684.72
9684.64
9684.55
9684.44
9684.3
9684.1
9683.84
9683.56
9683.26
9682.88
9682.39
9681.84
9681.29
9680.74
9680.21
9679.72
9679.31
9678.97
9678.68
9678.38
9677.94
9677.16
9675.96
9674.51
9673.26
9672.44
9671.95
9671.65
9671.46
9671.32
9671.19
9671.03
9670.75
9670.3
9669.71
9669.08
9668.56
9668.2
9667.96
9667.73
9667.44
9667.08
9666.73
9666.44
9666.19
9665.88
9665.35
9664.31
9662.81
9661.52
9660.84
9660.53
9660.36
9660.21
9660.05
9659.9
9659.76
9659.64
9659.48
9659.21
9658.64
9657.6
9656.17
9654.61
9653.26
9652.33
9651.82
9651.59
9651.48
9651.43
9651.39
9651.33
9651.21
9651.03
9650.82
9650.6
9650.39
9650.16
9649.86
9649.47
9648.94
9648.32
9647.72
9647.29
9647.02
9646.84
9646.68
9646.49
9646.24
9645.96
9645.59
9645.06
9644.21
9643.07
9642.05
9641.48
9641.21
9641.05
9640.91
9640.77
9640.6
9640.36
9640
9639.6
9639.27
9639.03
9638.81
9638.52
9638.13
9637.74
9637.47
9637.32
9637.22
9637.08
9636.83
9636.41
9635.85
9635.32
9635.01
9634.89
9634.86
9634.86
9634.85
9634.86
9634.87
9634.89
9634.94
9635.02
9635.2
9635.52
9635.88
9636.14
9636.28
9636.38
9636.47
9636.59
9636.73
9636.9
9637.12
9637.37
9637.6
9637.73
9637.8
9637.86
9637.97
9638.19
9638.58
9639.12
9639.74
9640.37
9641.03
9641.77
9642.7
9643.91
9645.47
9647.22
9648.86
9650.32
9651.93
9654.08
9656.48
9658.23
9659.19
9659.77
9660.31
9660.89
9661.47
9662.01
9662.47
9662.88
9663.31
9663.77
9664.21
9664.56
9664.89
9665.4
9666.58
9669.17
9673.46
9678.62
9683.1
9686.13
9687.91
9689.1
9690.19
9691.43
9692.72
9591.63
9591.01
9590.45
9589.85
9589.22
9588.65
9588.24
9587.98
9587.79
9587.62
9587.42
9587.2
9586.98
9586.82
9586.69
9586.55
9586.36
9586.12
9585.79
9585.44
9585.17
9584.98
9584.79
9584.51
9584.12
9583.62
9583.03
9582.28
9581.44
9580.74
9580.3
9580.05
9579.84
9579.42
9578.48
9576.99
9575.51
9574.53
9574.01
9573.74
9573.57
9573.45
9573.34
9573.23
9573.08
9572.84
9572.44
9571.88
9571.24
9570.67
9570.29
9570.05
9569.84
9569.57
9569.19
9568.75
9568.38
9568.07
9567.74
9567.15
9566
9564.48
9563.34
9562.82
9562.6
9562.47
9562.33
9562.16
9561.98
9561.8
9561.61
9561.37
9560.94
9560.15
9558.98
9557.68
9556.51
9555.51
9554.72
9554.15
9553.8
9553.62
9553.52
9553.45
9553.35
9553.19
9552.98
9552.75
9552.54
9552.33
9552.11
9551.84
9551.45
9550.9
9550.25
9549.67
9549.29
9549.05
9548.87
9548.67
9548.41
9548.1
9547.74
9547.28
9546.6
9545.6
9544.42
9543.58
9543.2
9543.04
9542.95
9542.85
9542.74
9542.59
9542.38
9542.06
9541.65
9541.28
9541
9540.75
9540.45
9540.08
9539.7
9539.44
9539.27
9539.13
9538.95
9538.67
9538.24
9537.7
9537.22
9536.94
9536.83
9536.81
9536.8
9536.8
9536.8
9536.82
9536.84
9536.88
9536.93
9537.07
9537.33
9537.69
9538
9538.21
9538.34
9538.46
9538.58
9538.7
9538.82
9538.94
9539.04
9539.1
9539.14
9539.18
9539.24
9539.36
9539.6
9540.01
9540.58
9541.24
9542.01
9542.9
9543.91
9545.03
9546.35
9547.93
9549.67
9551.39
9553.1
9555.08
9557.36
9559.32
9560.44
9560.99
9561.36
9561.77
9562.27
9562.88
9563.53
9564.18
9564.82
9565.46
9566.04
9566.48
9566.78
9567.04
9567.4
9568.22
9570.23
9573.93
9578.54
9582.25
9584.33
9585.37
9586.19
9587.4
9589.38
9591.89
9494.51
9493.48
9492.62
9491.83
9491.11
9490.55
9490.17
9489.93
9489.78
9489.63
9489.47
9489.28
9489.08
9488.91
9488.74
9488.5
9488.15
9487.74
9487.37
9487.09
9486.94
9486.86
9486.76
9486.58
9486.25
9485.73
9485.03
9484.1
9483.12
9482.39
9481.98
9481.75
9481.5
9481.01
9479.93
9478.34
9476.95
9476.17
9475.81
9475.65
9475.56
9475.48
9475.39
9475.27
9475.09
9474.86
9474.53
9474.08
9473.48
9472.87
9472.41
9472.11
9471.89
9471.62
9471.23
9470.76
9470.34
9469.99
9469.58
9468.82
9467.51
9466.06
9465.14
9464.77
9464.6
9464.48
9464.35
9464.2
9464.01
9463.79
9463.51
9463.09
9462.37
9461.27
9460.03
9459.01
9458.27
9457.64
9457.05
9456.53
9456.15
9455.92
9455.75
9455.59
9455.41
9455.19
9454.95
9454.7
9454.47
9454.24
9454.01
9453.74
9453.37
9452.84
9452.21
9451.68
9451.34
9451.13
9450.93
9450.68
9450.33
9449.9
9449.39
9448.76
9447.97
9447.02
9446.1
9445.47
9445.16
9445.02
9444.95
9444.9
9444.82
9444.69
9444.47
9444.13
9443.69
9443.28
9442.96
9442.68
9442.35
9441.97
9441.59
9441.31
9441.11
9440.95
9440.76
9440.48
9440.06
9439.55
9439.13
9438.89
9438.79
9438.76
9438.74
9438.74
9438.73
9438.73
9438.73
9438.74
9438.75
9438.83
9439.04
9439.36
9439.7
9439.96
9440.14
9440.29
9440.43
9440.53
9440.6
9440.6
9440.55
9440.51
9440.51
9440.54
9440.6
9440.73
9440.99
9441.42
9441.98
9442.69
9443.71
9445.11
9446.56
9447.88
9449.2
9450.64
9452.13
9453.59
9455.17
9457.15
9459.45
9461.32
9462.35
9462.84
9463.12
9463.33
9463.59
9463.98
9464.57
9465.35
9466.32
9467.35
9468.2
9468.73
9469.08
9469.41
9469.85
9470.59
9472.2
9475.31
9479.07
9481.78
9483.27
9484.11
9484.71
9485.49
9487.07
9490.32
9397.16
9396.21
9395.15
9394.17
9393.45
9392.91
9392.45
9392.08
9391.81
9391.59
9391.39
9391.2
9391.05
9390.91
9390.73
9390.41
9389.9
9389.39
9389.08
9388.93
9388.87
9388.81
9388.73
9388.55
9388.21
9387.66
9386.87
9385.88
9384.92
9384.26
9383.88
9383.63
9383.35
9382.84
9381.8
9380.26
9378.85
9378.06
9377.74
9377.62
9377.56
9377.51
9377.42
9377.3
9377.11
9376.89
9376.64
9376.33
9375.88
9375.32
9374.75
9374.31
9373.95
9373.57
9373.1
9372.6
9372.15
9371.73
9371.19
9370.29
9369.03
9367.84
9367.1
9366.77
9366.6
9366.48
9366.35
9366.17
9365.9
9365.49
9364.85
9364.01
9363.01
9361.94
9361.03
9360.42
9360.03
9359.68
9359.3
9358.9
9358.55
9358.28
9358.03
9357.78
9357.53
9357.26
9356.98
9356.69
9356.41
9356.14
9355.87
9355.58
9355.25
9354.79
9354.23
9353.73
9353.41
9353.22
9353.04
9352.78
9352.36
9351.8
9351.16
9350.48
9349.77
9348.95
9348.12
9347.5
9347.16
9347.02
9346.96
9346.92
9346.88
9346.81
9346.66
9346.35
9345.88
9345.4
9344.98
9344.61
9344.2
9343.77
9343.39
9343.12
9342.95
9342.83
9342.68
9342.43
9342.03
9341.51
9341.08
9340.85
9340.76
9340.73
9340.71
9340.69
9340.65
9340.59
9340.51
9340.46
9340.45
9340.51
9340.67
9340.92
9341.18
9341.37
9341.5
9341.6
9341.71
9341.83
9341.97
9342.1
9342.19
9342.23
9342.25
9342.26
9342.27
9342.35
9342.55
9342.94
9343.54
9344.47
9345.95
9347.71
9349.15
9350.25
9351.35
9352.62
9353.97
9355.23
9356.48
9358.07
9360.22
9362.34
9363.71
9364.33
9364.58
9364.7
9364.87
9365.2
9365.75
9366.57
9367.69
9369.02
9370.22
9371.06
9371.63
9372.15
9372.72
9373.43
9374.6
9376.72
9379.57
9382.27
9384.33
9385.52
9386.11
9386.56
9387.29
9389.66
9298.99
9298.49
9297.57
9296.57
9295.87
9295.42
9295.01
9294.54
9294.04
9293.58
9293.26
9293.06
9292.93
9292.81
9292.6
9292.18
9291.58
9291.05
9290.75
9290.62
9290.55
9290.48
9290.36
9290.12
9289.73
9289.2
9288.53
9287.75
9287
9286.4
9285.96
9285.63
9285.3
9284.75
9283.68
9282.14
9280.76
9280.01
9279.74
9279.63
9279.58
9279.52
9279.44
9279.3
9279.08
9278.83
9278.61
9278.4
9278.16
9277.79
9277.27
9276.65
9276.02
9275.4
9274.81
9274.28
9273.81
9273.31
9272.64
9271.74
9270.78
9269.96
9269.36
9268.96
9268.68
9268.47
9268.25
9267.93
9267.41
9266.6
9265.59
9264.63
9263.82
9263.16
9262.61
9262.2
9261.91
9261.65
9261.37
9261.07
9260.78
9260.52
9260.28
9260.03
9259.78
9259.49
9259.16
9258.79
9258.42
9258.06
9257.74
9257.46
9257.16
9256.76
9256.25
9255.76
9255.44
9255.26
9255.11
9254.9
9254.53
9253.94
9253.22
9252.52
9251.85
9251.09
9250.25
9249.55
9249.16
9249.01
9248.95
9248.92
9248.9
9248.87
9248.79
9248.57
9248.19
9247.72
9247.25
9246.75
9246.18
9245.64
9245.24
9245.02
9244.89
9244.78
9244.63
9244.38
9243.98
9243.46
9243.03
9242.82
9242.75
9242.72
9242.7
9242.68
9242.59
9242.42
9242.22
9242.1
9242.07
9242.11
9242.21
9242.36
9242.55
9242.73
9242.86
9242.93
9243
9243.11
9243.31
9243.63
9243.93
9244.08
9244.11
9244.09
9244.06
9244.07
9244.16
9244.39
9244.9
9245.97
9247.68
9249.5
9250.92
9251.99
9253.06
9254.34
9255.69
9256.89
9257.96
9259.15
9260.65
9262.28
9263.6
9264.46
9265.02
9265.45
9265.86
9266.38
9267.09
9268.06
9269.33
9270.82
9272.25
9273.36
9274.15
9274.77
9275.36
9276.01
9276.89
9278.25
9280.18
9282.54
9284.96
9286.79
9287.79
9288.38
9288.97
9290.23
9200.91
9200.55
9199.75
9198.74
9197.99
9197.55
9197.21
9196.81
9196.24
9195.63
9195.18
9194.93
9194.75
9194.55
9194.27
9193.83
9193.28
9192.8
9192.48
9192.25
9192.04
9191.83
9191.59
9191.32
9190.99
9190.61
9190.2
9189.78
9189.35
9188.89
9188.41
9187.93
9187.41
9186.61
9185.32
9183.77
9182.59
9182.02
9181.78
9181.68
9181.62
9181.56
9181.45
9181.25
9180.97
9180.71
9180.51
9180.35
9180.17
9179.9
9179.46
9178.79
9177.98
9177.19
9176.55
9176.05
9175.59
9175.05
9174.34
9173.51
9172.74
9172.15
9171.68
9171.25
9170.84
9170.43
9169.95
9169.33
9168.53
9167.57
9166.65
9165.97
9165.49
9165.07
9164.65
9164.24
9163.9
9163.61
9163.33
9163.06
9162.79
9162.54
9162.32
9162.14
9161.97
9161.77
9161.5
9161.12
9160.62
9160.12
9159.72
9159.41
9159.12
9158.75
9158.26
9157.77
9157.43
9157.23
9157.08
9156.91
9156.66
9156.23
9155.55
9154.75
9153.99
9153.18
9152.32
9151.62
9151.22
9151.04
9150.96
9150.92
9150.9
9150.86
9150.78
9150.58
9150.3
9149.95
9149.57
9149.1
9148.46
9147.76
9147.22
9146.93
9146.77
9146.63
9146.44
9146.19
9145.84
9145.4
9145.02
9144.82
9144.74
9144.7
9144.67
9144.59
9144.42
9144.16
9143.94
9143.83
9143.79
9143.78
9143.82
9143.92
9144.15
9144.46
9144.7
9144.81
9144.87
9144.92
9145.03
9145.27
9145.63
9145.87
9145.94
9145.91
9145.87
9145.85
9145.88
9145.97
9146.28
9147.06
9148.37
9149.86
9151.17
9152.35
9153.71
9155.33
9156.96
9158.32
9159.44
9160.5
9161.56
9162.61
9163.6
9164.54
9165.43
9166.2
9166.86
9167.51
9168.29
9169.35
9170.79
9172.49
9174.15
9175.45
9176.35
9177.02
9177.6
9178.21
9179
9180.13
9181.63
9183.44
9185.43
9187.22
9188.5
9189.42
9190.15
9190.81
9103
9102.63
9101.88
9100.86
9100.02
9099.51
9099.16
9098.79
9098.29
9097.68
9097.16
9096.81
9096.54
9096.27
9095.99
9095.67
9095.28
9094.83
9094.4
9094.04
9093.67
9093.31
9093.02
9092.8
9092.6
9092.37
9092.11
9091.86
9091.59
9091.28
9090.89
9090.38
9089.71
9088.68
9087.17
9085.59
9084.54
9084.08
9083.89
9083.8
9083.73
9083.64
9083.48
9083.22
9082.93
9082.68
9082.47
9082.29
9082.08
9081.76
9081.27
9080.55
9079.72
9078.97
9078.41
9078
9077.62
9077.17
9076.53
9075.71
9074.88
9074.23
9073.74
9073.3
9072.83
9072.27
9071.6
9070.85
9070.05
9069.22
9068.46
9067.89
9067.48
9067.12
9066.74
9066.34
9065.96
9065.62
9065.32
9065.03
9064.74
9064.46
9064.25
9064.09
9063.97
9063.84
9063.69
9063.42
9062.96
9062.36
9061.82
9061.42
9061.09
9060.72
9060.26
9059.78
9059.4
9059.16
9059
9058.85
9058.69
9058.42
9057.87
9057.03
9056.05
9055.05
9054.17
9053.58
9053.29
9053.13
9053.02
9052.95
9052.89
9052.81
9052.68
9052.5
9052.3
9052.04
9051.71
9051.26
9050.63
9049.84
9049.13
9048.69
9048.47
9048.31
9048.14
9047.95
9047.7
9047.35
9047.02
9046.8
9046.68
9046.58
9046.45
9046.29
9046.1
9045.91
9045.78
9045.71
9045.67
9045.65
9045.66
9045.74
9045.97
9046.34
9046.65
9046.8
9046.86
9046.91
9046.97
9047.1
9047.34
9047.57
9047.69
9047.73
9047.74
9047.75
9047.78
9047.85
9048.05
9048.52
9049.2
9049.9
9050.61
9051.56
9053.08
9055.19
9057.45
9059.37
9060.88
9062.14
9063.23
9064.17
9065.01
9065.84
9066.7
9067.52
9068.22
9068.85
9069.54
9070.5
9071.91
9073.73
9075.57
9077.06
9078.1
9078.87
9079.49
9080.09
9080.86
9082.04
9083.68
9085.52
9087.16
9088.28
9088.97
9089.58
9090.21
9090.68
9005.12
9004.66
9003.85
9002.85
9002.03
9001.53
9001.19
9000.86
9000.41
8999.81
8999.21
8998.75
8998.4
8998.13
8997.91
8997.69
8997.41
8996.98
8996.44
8995.9
8995.42
8995.05
8994.8
8994.63
8994.5
8994.35
8994.17
8993.94
8993.67
8993.37
8992.98
8992.45
8991.78
8990.84
8989.46
8987.89
8986.75
8986.23
8986.04
8985.95
8985.88
8985.77
8985.57
8985.29
8984.98
8984.7
8984.46
8984.21
8983.93
8983.53
8982.93
8982.13
8981.33
8980.74
8980.34
8980.04
8979.74
8979.36
8978.82
8978.04
8977.13
8976.32
8975.69
8975.19
8974.69
8974.12
8973.47
8972.8
8972.14
8971.43
8970.68
8970.02
8969.5
8969.08
8968.69
8968.31
8967.94
8967.62
8967.36
8967.1
8966.81
8966.5
8966.24
8966.05
8965.91
8965.8
8965.67
8965.47
8965.11
8964.56
8963.93
8963.39
8962.93
8962.51
8962.1
8961.7
8961.37
8961.13
8960.96
8960.82
8960.67
8960.43
8959.94
8959.05
8957.88
8956.76
8955.96
8955.53
8955.33
8955.22
8955.12
8955.01
8954.89
8954.74
8954.6
8954.47
8954.32
8954.1
8953.72
8953.12
8952.31
8951.45
8950.78
8950.36
8950.14
8950.02
8949.91
8949.76
8949.56
8949.26
8948.94
8948.69
8948.5
8948.32
8948.14
8947.99
8947.86
8947.77
8947.69
8947.64
8947.6
8947.58
8947.58
8947.62
8947.78
8948.11
8948.48
8948.72
8948.83
8948.89
8948.97
8949.07
8949.22
8949.39
8949.52
8949.61
8949.67
8949.7
8949.74
8949.82
8950
8950.26
8950.51
8950.74
8951.08
8951.78
8953.17
8955.32
8957.83
8960.16
8962.11
8963.7
8964.95
8965.91
8966.68
8967.41
8968.19
8968.95
8969.61
8970.13
8970.64
8971.35
8972.46
8973.98
8975.58
8976.96
8978.17
8979.34
8980.37
8981.2
8982.07
8983.42
8985.51
8987.74
8989.3
8990.03
8990.26
8990.37
8990.49
8990.43
8907.22
8906.59
8905.61
8904.64
8903.97
8903.57
8903.27
8902.96
8902.53
8901.98
8901.37
8900.84
8900.43
8900.13
8899.9
8899.7
8899.45
8899.08
8898.52
8897.86
8897.29
8896.92
8896.69
8896.56
8896.46
8896.37
8896.23
8896.02
8895.7
8895.27
8894.7
8894.03
8893.38
8892.75
8891.9
8890.7
8889.41
8888.59
8888.26
8888.12
8888.04
8887.93
8887.75
8887.46
8887.1
8886.73
8886.4
8886.09
8885.75
8885.26
8884.56
8883.74
8883.08
8882.64
8882.33
8882.06
8881.76
8881.38
8880.83
8880.05
8879.13
8878.28
8877.63
8877.16
8876.72
8876.21
8875.59
8874.94
8874.28
8873.56
8872.73
8871.99
8871.46
8871.06
8870.68
8870.28
8869.91
8869.61
8869.4
8869.2
8868.95
8868.64
8868.31
8868.05
8867.89
8867.76
8867.63
8867.43
8867.07
8866.51
8865.85
8865.23
8864.7
8864.26
8863.87
8863.55
8863.31
8863.13
8862.97
8862.81
8862.62
8862.31
8861.72
8860.78
8859.68
8858.68
8857.97
8857.57
8857.38
8857.27
8857.17
8857.04
8856.88
8856.72
8856.58
8856.47
8856.32
8856.05
8855.5
8854.61
8853.65
8852.93
8852.48
8852.19
8852
8851.87
8851.75
8851.6
8851.38
8851.11
8850.81
8850.53
8850.31
8850.13
8849.99
8849.88
8849.79
8849.7
8849.62
8849.55
8849.51
8849.48
8849.46
8849.45
8849.49
8849.7
8850.07
8850.44
8850.67
8850.81
8850.93
8851.06
8851.21
8851.36
8851.47
8851.55
8851.61
8851.67
8851.73
8851.85
8852.03
8852.17
8852.27
8852.38
8852.6
8853.13
8854.28
8856.1
8858.26
8860.43
8862.59
8864.68
8866.4
8867.59
8868.41
8869.09
8869.79
8870.49
8871.06
8871.45
8871.78
8872.22
8872.94
8873.99
8875.12
8876.14
8877.15
8878.31
8879.52
8880.55
8881.48
8882.9
8885.45
8888.62
8890.85
8891.73
8891.93
8891.93
8891.76
8890.86
8809.66
8808.36
8807.15
8806.33
8805.87
8805.58
8805.33
8805.04
8804.63
8804.11
8803.52
8802.98
8802.54
8802.2
8801.93
8801.69
8801.42
8801.05
8800.48
8799.79
8799.2
8798.84
8798.65
8798.53
8798.45
8798.37
8798.24
8797.99
8797.5
8796.77
8795.99
8795.35
8794.91
8794.58
8794.2
8793.56
8792.56
8791.58
8790.91
8790.51
8790.27
8790.09
8789.89
8789.63
8789.25
8788.81
8788.38
8788
8787.57
8786.98
8786.23
8785.51
8784.99
8784.64
8784.35
8784.05
8783.7
8783.25
8782.65
8781.88
8781.01
8780.21
8779.6
8779.17
8778.78
8778.33
8777.73
8777
8776.16
8775.22
8774.31
8773.7
8773.37
8773.15
8772.88
8772.49
8772.05
8771.7
8771.45
8771.26
8771.03
8770.71
8770.36
8770.1
8769.95
8769.82
8769.67
8769.4
8768.95
8768.35
8767.71
8767.14
8766.61
8766.14
8765.74
8765.44
8765.24
8765.11
8764.97
8764.77
8764.46
8763.99
8763.4
8762.7
8761.92
8761.06
8760.28
8759.75
8759.47
8759.31
8759.18
8759.04
8758.87
8758.71
8758.57
8758.44
8758.23
8757.81
8757
8755.96
8755.12
8754.66
8754.38
8754.14
8753.94
8753.77
8753.6
8753.41
8753.19
8752.94
8752.68
8752.44
8752.23
8752.07
8751.95
8751.85
8751.76
8751.65
8751.56
8751.49
8751.44
8751.4
8751.35
8751.27
8751.2
8751.27
8751.6
8752.06
8752.43
8752.65
8752.81
8752.96
8753.14
8753.3
8753.42
8753.49
8753.55
8753.61
8753.71
8753.88
8754.04
8754.15
8754.22
8754.3
8754.44
8754.8
8755.59
8756.82
8758.21
8759.64
8761.38
8763.71
8766.4
8768.59
8769.93
8770.82
8771.58
8772.26
8772.78
8773.13
8773.38
8773.66
8774.1
8774.84
8775.79
8776.72
8777.49
8778.22
8779.01
8779.75
8780.47
8781.54
8783.57
8786.77
8790.02
8792.08
8792.93
8793.13
8792.84
8791.25
8712.26
8710.02
8708.85
8708.24
8707.89
8707.64
8707.41
8707.13
8706.74
8706.19
8705.55
8704.98
8704.54
8704.22
8703.93
8703.62
8703.24
8702.73
8702.09
8701.5
8701.08
8700.83
8700.68
8700.57
8700.47
8700.36
8700.14
8699.63
8698.78
8697.89
8697.27
8696.9
8696.67
8696.48
8696.24
8695.89
8695.35
8694.64
8693.89
8693.21
8692.68
8692.31
8692.02
8691.71
8691.32
8690.87
8690.41
8689.95
8689.44
8688.8
8688.05
8687.4
8686.94
8686.61
8686.3
8685.97
8685.58
8685.11
8684.55
8683.87
8683.09
8682.31
8681.67
8681.19
8680.77
8680.27
8679.56
8678.6
8677.52
8676.53
8675.84
8675.48
8675.31
8675.19
8675.04
8674.78
8674.39
8673.99
8673.67
8673.41
8673.12
8672.76
8672.42
8672.2
8672.07
8671.96
8671.8
8671.52
8671.08
8670.53
8669.91
8669.27
8668.63
8668.02
8667.58
8667.31
8667.15
8667.01
8666.81
8666.5
8666.07
8665.64
8665.26
8664.87
8664.35
8663.63
8662.82
8662.17
8661.75
8661.5
8661.31
8661.12
8660.9
8660.7
8660.52
8660.32
8659.99
8659.37
8658.45
8657.52
8656.88
8656.52
8656.27
8656.01
8655.76
8655.55
8655.38
8655.23
8655.05
8654.86
8654.64
8654.42
8654.22
8654.06
8653.93
8653.82
8653.71
8653.6
8653.49
8653.4
8653.32
8653.26
8653.18
8653.07
8652.97
8652.98
8653.19
8653.64
8654.14
8654.47
8654.66
8654.81
8654.98
8655.14
8655.26
8655.31
8655.31
8655.3
8655.39
8655.59
8655.81
8655.94
8655.99
8656.03
8656.13
8656.39
8656.93
8657.73
8658.59
8659.4
8660.33
8661.83
8664.31
8667.4
8670.18
8672.08
8673.3
8674.12
8674.67
8675.03
8675.29
8675.54
8675.84
8676.3
8677.04
8677.97
8678.78
8679.41
8679.93
8680.45
8681.05
8681.86
8683.04
8684.78
8686.9
8688.79
8690.02
8690.67
8690.71
8689.82
8613.59
8611.87
8610.96
8610.42
8610.06
8609.78
8609.52
8609.2
8608.71
8608.03
8607.32
8606.78
8606.43
8606.16
8605.87
8605.49
8604.97
8604.36
8603.76
8603.32
8603.05
8602.88
8602.75
8602.63
8602.51
8602.3
8601.79
8600.88
8599.9
8599.26
8598.93
8598.74
8598.59
8598.42
8598.21
8597.93
8597.56
8597.1
8596.53
8595.86
8595.19
8594.64
8594.19
8593.78
8593.33
8592.84
8592.35
8591.91
8591.47
8590.9
8590.16
8589.44
8588.9
8588.51
8588.18
8587.83
8587.44
8587
8586.51
8585.94
8585.25
8584.47
8583.76
8583.15
8582.57
8581.86
8580.9
8579.78
8578.76
8578.04
8577.63
8577.41
8577.28
8577.18
8577.06
8576.88
8576.61
8576.26
8575.91
8575.57
8575.2
8574.81
8574.5
8574.3
8574.18
8574.06
8573.91
8573.69
8573.37
8572.92
8572.31
8571.5
8570.58
8569.81
8569.38
8569.17
8569.03
8568.85
8568.58
8568.22
8567.86
8567.56
8567.29
8566.97
8566.49
8565.81
8565.05
8564.4
8563.97
8563.7
8563.5
8563.29
8563.03
8562.73
8562.4
8562.02
8561.45
8560.65
8559.82
8559.15
8558.68
8558.34
8558.05
8557.75
8557.51
8557.36
8557.26
8557.16
8557.03
8556.85
8556.63
8556.42
8556.22
8556.05
8555.89
8555.76
8555.63
8555.5
8555.37
8555.24
8555.13
8555.04
8554.95
8554.87
8554.81
8554.79
8554.86
8555.1
8555.55
8556.03
8556.37
8556.58
8556.74
8556.87
8556.93
8556.89
8556.77
8556.69
8556.74
8556.95
8557.25
8557.47
8557.59
8557.65
8557.75
8557.94
8558.35
8559.03
8559.81
8560.48
8561.05
8561.75
8562.99
8565.25
8568.41
8571.51
8573.86
8575.36
8576.29
8576.87
8577.26
8577.55
8577.79
8578.06
8578.5
8579.19
8579.92
8580.54
8581.05
8581.58
8582.23
8583.05
8584
8584.86
8585.38
8585.64
8585.88
8586.13
8586.45
8587.29
8514.4
8513.82
8513.32
8512.87
8512.47
8512.09
8511.71
8511.2
8510.48
8509.67
8509.01
8508.61
8508.34
8508.1
8507.81
8507.4
8506.85
8506.26
8505.75
8505.37
8505.11
8504.94
8504.81
8504.68
8504.48
8504.04
8503.22
8502.22
8501.47
8501.06
8500.85
8500.7
8500.56
8500.39
8500.18
8499.91
8499.6
8499.22
8498.74
8498.15
8497.51
8496.89
8496.34
8495.83
8495.31
8494.77
8494.29
8493.92
8493.58
8493.12
8492.42
8491.6
8490.9
8490.4
8490.02
8489.65
8489.26
8488.84
8488.41
8487.92
8487.27
8486.47
8485.64
8484.92
8484.23
8483.4
8482.38
8481.31
8480.45
8479.9
8479.58
8479.4
8479.27
8479.16
8479.03
8478.84
8478.57
8478.27
8477.96
8477.62
8477.23
8476.86
8476.56
8476.37
8476.23
8476.1
8475.94
8475.73
8475.46
8475.08
8474.47
8473.54
8472.45
8471.67
8471.3
8471.11
8470.97
8470.79
8470.53
8470.23
8469.92
8469.63
8469.33
8468.93
8468.36
8467.62
8466.88
8466.32
8465.95
8465.71
8465.55
8465.38
8465.16
8464.8
8464.27
8463.59
8462.77
8461.93
8461.3
8460.88
8460.54
8460.22
8459.9
8459.62
8459.44
8459.33
8459.25
8459.14
8458.96
8458.71
8458.46
8458.26
8458.09
8457.92
8457.76
8457.61
8457.48
8457.35
8457.22
8457.09
8456.96
8456.86
8456.79
8456.74
8456.71
8456.7
8456.71
8456.77
8456.93
8457.24
8457.6
8457.91
8458.12
8458.22
8458.24
8458.21
8458.17
8458.18
8458.29
8458.52
8458.84
8459.14
8459.35
8459.47
8459.57
8459.73
8460.02
8460.51
8461.12
8461.68
8462.17
8462.7
8463.47
8464.76
8466.73
8469.01
8470.99
8472.63
8474.43
8476.64
8478.46
8479.31
8479.65
8479.84
8480.01
8480.29
8480.84
8481.52
8482.09
8482.52
8482.82
8483.04
8483.48
8484.16
8484.64
8484.72
8484.54
8484.4
8484.73
8486.15
8415.96
8415.79
8415.59
8415.32
8414.95
8414.5
8413.94
8413.18
8412.26
8411.41
8410.86
8410.54
8410.32
8410.08
8409.75
8409.29
8408.73
8408.19
8407.78
8407.51
8407.29
8407.11
8406.95
8406.73
8406.35
8405.67
8404.73
8403.86
8403.29
8402.98
8402.8
8402.65
8402.51
8402.33
8402.12
8401.9
8401.63
8401.29
8400.84
8400.24
8399.55
8398.87
8398.3
8397.83
8397.39
8396.89
8396.4
8395.99
8395.62
8395.09
8394.31
8393.47
8392.81
8392.33
8391.94
8391.55
8391.14
8390.72
8390.28
8389.75
8389.03
8388.13
8387.32
8386.74
8386.21
8385.51
8384.51
8383.4
8382.48
8381.9
8381.59
8381.41
8381.28
8381.15
8380.98
8380.74
8380.44
8380.16
8379.91
8379.64
8379.3
8378.93
8378.61
8378.4
8378.25
8378.11
8377.95
8377.73
8377.44
8377.01
8376.3
8375.31
8374.32
8373.68
8373.35
8373.17
8373.01
8372.83
8372.59
8372.31
8372.03
8371.73
8371.36
8370.83
8370.11
8369.31
8368.61
8368.1
8367.79
8367.6
8367.48
8367.36
8367.19
8366.87
8366.3
8365.51
8364.63
8363.79
8363.19
8362.81
8362.5
8362.19
8361.86
8361.59
8361.41
8361.28
8361.14
8360.92
8360.6
8360.28
8360.07
8359.94
8359.83
8359.69
8359.54
8359.42
8359.32
8359.22
8359.11
8358.98
8358.85
8358.76
8358.69
8358.65
8358.62
8358.62
8358.62
8358.61
8358.61
8358.65
8358.76
8358.94
8359.11
8359.24
8359.34
8359.47
8359.63
8359.84
8360.08
8360.36
8360.69
8360.99
8361.19
8361.32
8361.42
8361.56
8361.77
8362.09
8362.43
8362.74
8363.05
8363.47
8364.11
8365.07
8366.22
8367.11
8367.54
8368.05
8369.37
8372.15
8376.02
8379
8380.28
8380.51
8380.34
8380.35
8380.98
8381.98
8382.71
8382.82
8382.08
8381.03
8380.82
8381.53
8382.52
8383.3
8383.86
8384.43
8385.23
8386.4
8317.93
8317.8
8317.66
8317.48
8317.19
8316.75
8316.07
8315.1
8314
8313.13
8312.65
8312.41
8312.25
8312.06
8311.69
8311.09
8310.46
8309.99
8309.73
8309.59
8309.47
8309.32
8309.13
8308.82
8308.28
8307.43
8306.44
8305.62
8305.13
8304.87
8304.71
8304.57
8304.42
8304.26
8304.07
8303.88
8303.65
8303.33
8302.84
8302.15
8301.35
8300.65
8300.15
8299.81
8299.5
8299.12
8298.63
8298.07
8297.42
8296.63
8295.8
8295.16
8294.72
8294.36
8293.99
8293.59
8293.15
8292.65
8292.06
8291.3
8290.4
8289.56
8289.01
8288.7
8288.43
8287.97
8287.11
8285.88
8284.7
8283.95
8283.58
8283.4
8283.27
8283.13
8282.93
8282.64
8282.34
8282.07
8281.85
8281.61
8281.3
8280.93
8280.62
8280.41
8280.27
8280.13
8279.94
8279.64
8279.17
8278.53
8277.76
8276.95
8276.25
8275.77
8275.49
8275.31
8275.15
8274.95
8274.71
8274.43
8274.15
8273.83
8273.41
8272.77
8271.91
8271.01
8270.31
8269.85
8269.61
8269.48
8269.4
8269.32
8269.18
8268.9
8268.44
8267.8
8267.05
8266.23
8265.48
8264.91
8264.46
8264.06
8263.71
8263.46
8263.29
8263.13
8262.88
8262.51
8262.14
8261.92
8261.82
8261.76
8261.67
8261.5
8261.25
8261.05
8260.95
8260.87
8260.8
8260.72
8260.67
8260.63
8260.59
8260.56
8260.52
8260.48
8260.47
8260.45
8260.43
8260.41
8260.41
8260.43
8260.49
8260.6
8260.74
8260.91
8261.11
8261.35
8261.64
8261.96
8262.33
8262.67
8262.89
8263.03
8263.13
8263.25
8263.37
8263.49
8263.53
8263.53
8263.57
8263.77
8264.21
8264.96
8265.86
8266.45
8266.64
8266.76
8267.14
8268.28
8270.95
8274.4
8277.07
8278.33
8278.56
8278.58
8278.83
8279.16
8279.26
8279.07
8278.6
8278.34
8278.81
8279.71
8280.67
8281.58
8282.56
8283.82
8285.33
8286.62
8220.05
8219.88
8219.73
8219.55
8219.26
8218.77
8217.95
8216.79
8215.61
8214.79
8214.39
8214.22
8214.12
8213.97
8213.64
8213.02
8212.36
8211.93
8211.71
8211.6
8211.52
8211.41
8211.22
8210.88
8210.27
8209.36
8208.33
8207.49
8207
8206.75
8206.59
8206.46
8206.33
8206.18
8206
8205.78
8205.47
8205.02
8204.49
8203.89
8203.2
8202.56
8202.09
8201.79
8201.53
8201.22
8200.74
8199.99
8199.05
8198.16
8197.54
8197.12
8196.79
8196.45
8196.06
8195.6
8195.05
8194.39
8193.6
8192.72
8191.9
8191.29
8190.93
8190.72
8190.54
8190.27
8189.72
8188.66
8187.26
8186.14
8185.61
8185.4
8185.27
8185.14
8184.93
8184.61
8184.27
8184
8183.77
8183.52
8183.2
8182.85
8182.58
8182.41
8182.28
8182.12
8181.83
8181.32
8180.64
8179.94
8179.32
8178.76
8178.25
8177.85
8177.59
8177.42
8177.29
8177.12
8176.87
8176.56
8176.23
8175.87
8175.44
8174.82
8173.94
8172.96
8172.19
8171.75
8171.54
8171.44
8171.38
8171.3
8171.15
8170.87
8170.43
8169.88
8169.29