/*--------------------------------*- C++ -*----------------------------------*\
  =========                 |
  \\      /  F ield         | OpenFOAM: The Open Source CFD Toolbox
   \\    /   O peration     | Website:  https://openfoam.org
    \\  /    A nd           | Version:  8
     \\/     M anipulation  |
\*---------------------------------------------------------------------------*/
FoamFile
{
    version     2.0;
    format      ascii;
    class       volVectorField;
    location    "1";
    object      U;
}
// * * * * * * * * * * * * * * * * * * * * * * * * * * * * * * * * * * * * * //

dimensions      [0 1 -1 0 0 0 0];

internalField   nonuniform List<vector> 
20000
(
(8.10446e-05 0 -1.50446e-05)
(9.11863e-05 0 4.903e-06)
(7.23615e-05 0 1.39217e-05)
(4.46409e-05 0 1.37988e-05)
(2.23122e-05 0 8.52992e-06)
(1.00959e-05 0 3.68632e-06)
(5.2392e-06 0 1.1704e-06)
(3.92801e-06 0 1.40785e-07)
(4.07796e-06 0 -2.90737e-07)
(4.85854e-06 0 -4.89842e-07)
(5.95406e-06 0 -6.0568e-07)
(7.37583e-06 0 -8.16079e-07)
(9.59637e-06 0 -1.40446e-06)
(1.40429e-05 0 -3.04205e-06)
(2.37158e-05 0 -6.63081e-06)
(4.3039e-05 0 -1.26925e-05)
(7.3681e-05 0 -1.79494e-05)
(0.000106361 0 -1.4731e-05)
(0.000125857 0 -4.7645e-06)
(0.000129375 0 1.24606e-06)
(0.000126416 0 1.71304e-06)
(0.000124063 0 6.39577e-07)
(0.000124062 0 -6.38069e-07)
(0.000126865 0 -2.16528e-06)
(0.000132707 0 -3.67652e-06)
(0.000140621 0 -4.23796e-06)
(0.000147751 0 -2.89196e-06)
(0.000150347 0 2.96581e-07)
(0.000146523 0 3.52728e-06)
(0.000137634 0 5.3617e-06)
(0.000125177 0 7.09482e-06)
(0.000109085 0 8.99695e-06)
(9.07595e-05 0 9.32885e-06)
(7.41807e-05 0 7.25e-06)
(6.3233e-05 0 3.69769e-06)
(5.89126e-05 0 6.22704e-07)
(5.89809e-05 0 -6.91023e-07)
(5.95868e-05 0 8.51252e-08)
(5.70868e-05 0 2.41488e-06)
(4.98956e-05 0 4.7763e-06)
(4.02833e-05 0 4.83605e-06)
(3.33808e-05 0 2.06643e-06)
(3.32595e-05 0 -1.94519e-06)
(4.10775e-05 0 -5.87284e-06)
(5.58041e-05 0 -8.85373e-06)
(7.4978e-05 0 -1.03202e-05)
(9.49715e-05 0 -9.67336e-06)
(0.000111537 0 -6.89232e-06)
(0.00012152 0 -3.09026e-06)
(0.00012347 0 1.14027e-06)
(0.000116865 0 5.46446e-06)
(0.000103409 0 7.99127e-06)
(8.85913e-05 0 6.82673e-06)
(7.80747e-05 0 3.68981e-06)
(7.38661e-05 0 5.18747e-07)
(7.42668e-05 0 -9.19466e-07)
(7.14266e-05 0 3.75966e-06)
(5.90533e-05 0 8.61363e-06)
(4.52698e-05 0 5.16993e-06)
(3.86753e-05 0 1.42452e-06)
(3.74989e-05 0 -2.48107e-07)
(3.91191e-05 0 -1.37209e-06)
(4.39051e-05 0 -3.41391e-06)
(5.29917e-05 0 -5.67271e-06)
(6.43e-05 0 -5.63554e-06)
(7.16628e-05 0 -1.72735e-06)
(6.89792e-05 0 4.41091e-06)
(5.57891e-05 0 8.7792e-06)
(3.86729e-05 0 8.33698e-06)
(2.53636e-05 0 4.97238e-06)
(1.91527e-05 0 1.23846e-06)
(1.99837e-05 0 -2.06941e-06)
(2.63572e-05 0 -4.30412e-06)
(3.49102e-05 0 -4.24884e-06)
(4.17482e-05 0 -2.58925e-06)
(4.55832e-05 0 -1.2457e-06)
(4.73471e-05 0 -5.18208e-07)
(4.79618e-05 0 -9.64528e-08)
(4.80789e-05 0 -2.06726e-08)
(4.89733e-05 0 -8.73756e-07)
(5.33993e-05 0 -3.55228e-06)
(6.48345e-05 0 -7.88299e-06)
(8.24483e-05 0 -9.7309e-06)
(9.79683e-05 0 -5.78911e-06)
(0.000103418 0 3.38878e-07)
(9.80923e-05 0 4.98722e-06)
(8.60661e-05 0 7.03899e-06)
(7.30271e-05 0 6.00003e-06)
(6.35097e-05 0 3.51737e-06)
(5.78859e-05 0 2.10634e-06)
(5.26312e-05 0 3.14836e-06)
(4.22944e-05 0 7.18848e-06)
(2.63119e-05 0 8.79402e-06)
(1.33672e-05 0 4.15063e-06)
(8.20076e-06 0 1.01584e-06)
(7.35364e-06 0 -1.68719e-07)
(8.88107e-06 0 -1.35871e-06)
(1.34118e-05 0 -3.17202e-06)
(2.04293e-05 0 -3.84548e-06)
(2.55769e-05 0 -1.30214e-06)
(2.60496e-05 0 8.29415e-07)
(2.46588e-05 0 5.61378e-07)
(2.48642e-05 0 -7.66759e-07)
(2.84167e-05 0 -2.78572e-06)
(3.69322e-05 0 -5.72977e-06)
(5.07161e-05 0 -8.0541e-06)
(6.49336e-05 0 -6.16342e-06)
(7.27635e-05 0 -1.66647e-06)
(7.0665e-05 0 3.76498e-06)
(5.60485e-05 0 1.08515e-05)
(3.33395e-05 0 1.18576e-05)
(1.60778e-05 0 5.40419e-06)
(9.35328e-06 0 1.32031e-06)
(8.37848e-06 0 -3.45517e-07)
(1.00628e-05 0 -1.33885e-06)
(1.33042e-05 0 -1.90252e-06)
(1.64446e-05 0 -1.23785e-06)
(1.71798e-05 0 5.02651e-07)
(1.52823e-05 0 1.39481e-06)
(1.26757e-05 0 1.21181e-06)
(1.05383e-05 0 9.2557e-07)
(8.79265e-06 0 8.20083e-07)
(7.15992e-06 0 8.12642e-07)
(5.58614e-06 0 7.61141e-07)
(4.276e-06 0 5.49e-07)
(3.49006e-06 0 2.36939e-07)
(3.2162e-06 0 3.69153e-08)
(3.16852e-06 0 1.07616e-08)
(3.09066e-06 0 6.71048e-08)
(2.85843e-06 0 1.65124e-07)
(2.3856e-06 0 3.07701e-07)
(1.68042e-06 0 3.97488e-07)
(9.61615e-07 0 3.21311e-07)
(4.06816e-07 0 2.33488e-07)
(-2.1338e-07 0 3.86707e-07)
(-1.93385e-06 0 1.33376e-06)
(-6.30826e-06 0 3.04065e-06)
(-1.21173e-05 0 2.76842e-06)
(-1.6334e-05 0 1.44828e-06)
(-1.82419e-05 0 4.59556e-07)
(-1.88604e-05 0 1.59001e-07)
(-1.93185e-05 0 2.99087e-07)
(-2.00159e-05 0 3.98266e-07)
(-2.05301e-05 0 1.15979e-07)
(-1.98973e-05 0 -7.48771e-07)
(-1.74979e-05 0 -1.65066e-06)
(-1.37837e-05 0 -2.06353e-06)
(-9.75971e-06 0 -1.96048e-06)
(-6.53767e-06 0 -1.26156e-06)
(-4.84945e-06 0 -4.26661e-07)
(-4.67376e-06 0 2.50971e-07)
(-6.2739e-06 0 1.34917e-06)
(-1.26874e-05 0 5.0643e-06)
(-3.38052e-05 0 1.60536e-05)
(-8.43081e-05 0 3.44493e-05)
(-0.000168843 0 5.00859e-05)
(-0.000270413 0 5.14833e-05)
(-0.00035778 0 3.58839e-05)
(-0.000405612 0 1.19483e-05)
(-0.000400573 0 -1.69875e-05)
(-0.0003321 0 -5.14851e-05)
(-0.000217639 0 -6.29765e-05)
(-0.000118542 0 -3.61204e-05)
(-6.79587e-05 0 -1.44629e-05)
(-4.87e-05 0 -4.79577e-06)
(-4.30399e-05 0 -8.64378e-07)
(-4.30616e-05 0 8.86114e-07)
(-4.63483e-05 0 2.40059e-06)
(-5.35617e-05 0 4.81274e-06)
(-6.6733e-05 0 8.3586e-06)
(-8.47536e-05 0 9.66202e-06)
(-9.98143e-05 0 5.39865e-06)
(-0.000106072 0 8.59046e-07)
(-0.000107079 0 1.48388e-07)
(-0.000109709 0 2.48164e-06)
(-0.000120814 0 8.62241e-06)
(-0.000147488 0 1.80524e-05)
(-0.000184067 0 1.85267e-05)
(-0.000202605 0 1.13287e-08)
(-0.000186839 0 -1.57772e-05)
(-0.000158969 0 -1.20937e-05)
(-0.000149738 0 2.86354e-06)
(-0.000179729 0 2.71272e-05)
(-0.000276527 0 6.96706e-05)
(-0.000452557 0 0.000106359)
(-0.000641849 0 8.29331e-05)
(-0.000755706 0 3.09246e-05)
(-0.000782814 0 -3.81728e-06)
(-0.000753883 0 -2.51133e-05)
(-0.000681204 0 -4.75663e-05)
(-0.000558981 0 -7.46565e-05)
(-0.000400799 0 -8.35251e-05)
(-0.000262668 0 -5.46059e-05)
(-0.000189236 0 -1.88268e-05)
(-0.000187778 0 1.73696e-05)
(-0.00027855 0 7.34016e-05)
(-0.000489108 0 0.000137157)
(-0.000778172 0 0.000151907)
(-0.00106923 0 0.000139146)
(-0.00137036 0 0.000161984)
(5.5681e-05 0 -1.97702e-05)
(4.7149e-05 0 8.01892e-06)
(5.25758e-05 0 2.42038e-05)
(5.4157e-05 0 2.96562e-05)
(4.3741e-05 0 2.54174e-05)
(2.71152e-05 0 1.56409e-05)
(1.43785e-05 0 6.80922e-06)
(8.30131e-06 0 1.89039e-06)
(6.23322e-06 0 -1.22203e-07)
(5.69511e-06 0 -9.00845e-07)
(6.0085e-06 0 -1.6036e-06)
(7.95226e-06 0 -3.18367e-06)
(1.29273e-05 0 -6.23241e-06)
(2.26564e-05 0 -1.23897e-05)
(3.98553e-05 0 -2.4155e-05)
(6.55626e-05 0 -4.01988e-05)
(9.1257e-05 0 -4.67795e-05)
(0.000100064 0 -2.73884e-05)
(8.73211e-05 0 1.14007e-06)
(6.72791e-05 0 1.1865e-05)
(5.35478e-05 0 7.78456e-06)
(4.83629e-05 0 2.10552e-06)
(4.81442e-05 0 -1.88377e-06)
(4.93669e-05 0 -4.94567e-06)
(4.99679e-05 0 -7.33889e-06)
(4.9692e-05 0 -8.21417e-06)
(4.99096e-05 0 -6.26325e-06)
(5.22527e-05 0 -1.27066e-06)
(5.65859e-05 0 4.58517e-06)
(6.01559e-05 0 9.62281e-06)
(6.05952e-05 0 1.48509e-05)
(5.8924e-05 0 1.90038e-05)
(5.78338e-05 0 1.87381e-05)
(5.81981e-05 0 1.40554e-05)
(5.82618e-05 0 7.77633e-06)
(5.60983e-05 0 3.02794e-06)
(5.16051e-05 0 1.32857e-06)
(4.65729e-05 0 2.49187e-06)
(4.33963e-05 0 5.68474e-06)
(4.2501e-05 0 9.59291e-06)
(4.06636e-05 0 1.14691e-05)
(3.48158e-05 0 8.18365e-06)
(2.75333e-05 0 -6.58718e-07)
(2.30441e-05 0 -1.04881e-05)
(2.16226e-05 0 -1.75436e-05)
(2.1577e-05 0 -2.07586e-05)
(2.11368e-05 0 -1.87883e-05)
(1.92455e-05 0 -1.24518e-05)
(1.74278e-05 0 -5.69571e-06)
(1.88523e-05 0 3.71259e-07)
(2.55121e-05 0 6.17836e-06)
(3.71507e-05 0 9.09448e-06)
(5.24795e-05 0 5.21282e-06)
(7.02726e-05 0 -1.9729e-06)
(8.61516e-05 0 -5.48902e-06)
(9.02922e-05 0 5.47004e-07)
(7.53499e-05 0 2.00757e-05)
(4.94193e-05 0 3.06015e-05)
(3.01606e-05 0 1.62242e-05)
(2.32226e-05 0 3.90267e-06)
(2.25386e-05 0 -8.65858e-07)
(2.36381e-05 0 -3.47404e-06)
(2.45205e-05 0 -6.98035e-06)
(2.34944e-05 0 -1.01668e-05)
(2.12615e-05 0 -1.02168e-05)
(2.2524e-05 0 -5.77156e-06)
(3.24145e-05 0 1.2482e-06)
(5.01233e-05 0 7.42318e-06)
(6.51474e-05 0 1.1785e-05)
(6.43992e-05 0 1.55819e-05)
(4.89347e-05 0 1.23043e-05)
(3.25412e-05 0 2.4273e-06)
(2.19044e-05 0 -4.5376e-06)
(1.49461e-05 0 -5.61004e-06)
(1.05012e-05 0 -3.62118e-06)
(8.4194e-06 0 -1.96695e-06)
(8.06905e-06 0 -1.2105e-06)
(9.11396e-06 0 -1.06373e-06)
(1.16734e-05 0 -1.73e-06)
(1.57952e-05 0 -4.18066e-06)
(2.1075e-05 0 -9.95114e-06)
(2.63479e-05 0 -1.81924e-05)
(2.94048e-05 0 -2.00922e-05)
(2.91846e-05 0 -1.07276e-05)
(2.80043e-05 0 1.00738e-06)
(2.80664e-05 0 9.58277e-06)
(2.79007e-05 0 1.46353e-05)
(2.53017e-05 0 1.40417e-05)
(2.1586e-05 0 8.7089e-06)
(1.98475e-05 0 4.277e-06)
(2.21398e-05 0 3.94009e-06)
(3.02452e-05 0 8.62813e-06)
(4.11853e-05 0 1.23969e-05)
(4.51634e-05 0 9.51429e-06)
(4.02919e-05 0 5.69018e-06)
(3.42565e-05 0 2.0395e-06)
(3.12836e-05 0 -2.12151e-06)
(3.21615e-05 0 -7.81787e-06)
(3.64662e-05 0 -1.05218e-05)
(4.08133e-05 0 -4.12046e-06)
(4.16992e-05 0 2.28907e-06)
(4.04995e-05 0 1.69224e-06)
(4.13381e-05 0 -2.94162e-06)
(4.55191e-05 0 -8.3443e-06)
(4.77825e-05 0 -1.09501e-05)
(4.1448e-05 0 -1.02831e-05)
(2.99848e-05 0 -6.68877e-06)
(2.24185e-05 0 -1.40472e-06)
(2.26923e-05 0 5.32799e-06)
(3.01281e-05 0 1.64691e-05)
(3.55219e-05 0 2.35551e-05)
(3.07809e-05 0 1.57094e-05)
(2.32748e-05 0 5.24569e-06)
(2.03467e-05 0 -3.68032e-07)
(1.98785e-05 0 -2.53242e-06)
(1.85736e-05 0 -2.64542e-06)
(1.53061e-05 0 -3.67799e-07)
(1.09757e-05 0 3.22773e-06)
(7.39774e-06 0 4.14518e-06)
(5.6386e-06 0 2.82721e-06)
(5.27641e-06 0 1.80975e-06)
(5.42005e-06 0 1.53792e-06)
(5.44656e-06 0 1.70101e-06)
(4.9995e-06 0 1.89362e-06)
(4.12074e-06 0 1.60542e-06)
(3.23587e-06 0 8.51324e-07)
(2.66902e-06 0 2.63231e-07)
(2.43318e-06 0 6.79643e-08)
(2.45814e-06 0 6.28066e-08)
(2.71282e-06 0 1.46981e-07)
(3.1807e-06 0 3.3078e-07)
(3.6814e-06 0 5.78906e-07)
(3.66756e-06 0 8.72527e-07)
(2.44867e-06 0 1.45597e-06)
(-3.18221e-07 0 2.55131e-06)
(-3.65436e-06 0 4.22576e-06)
(-5.02595e-06 0 5.89465e-06)
(-4.40618e-06 0 5.10372e-06)
(-4.50299e-06 0 3.4265e-06)
(-6.59053e-06 0 2.47671e-06)
(-1.05723e-05 0 2.74218e-06)
(-1.58418e-05 0 3.44353e-06)
(-2.15436e-05 0 3.65296e-06)
(-2.74829e-05 0 3.31482e-06)
(-3.38045e-05 0 1.74122e-06)
(-3.81022e-05 0 -2.24244e-06)
(-3.57473e-05 0 -7.54078e-06)
(-2.72261e-05 0 -9.02844e-06)
(-1.88882e-05 0 -5.7535e-06)
(-1.48059e-05 0 -1.7053e-06)
(-1.5106e-05 0 1.65403e-06)
(-1.98734e-05 0 6.31361e-06)
(-2.97545e-05 0 1.63944e-05)
(-4.23623e-05 0 3.84492e-05)
(-5.31932e-05 0 7.33875e-05)
(-6.15227e-05 0 0.000104012)
(-6.48057e-05 0 0.000102409)
(-5.95661e-05 0 6.70858e-05)
(-5.70089e-05 0 2.60215e-05)
(-7.70728e-05 0 -1.60359e-05)
(-0.000128415 0 -6.95669e-05)
(-0.000184448 0 -0.000103323)
(-0.000198361 0 -8.09573e-05)
(-0.000168401 0 -5.01693e-05)
(-0.00012744 0 -2.93096e-05)
(-9.49232e-05 0 -1.45273e-05)
(-7.63544e-05 0 -3.99794e-06)
(-6.96009e-05 0 3.81785e-06)
(-7.14016e-05 0 1.24095e-05)
(-8.09987e-05 0 2.35303e-05)
(-9.81606e-05 0 2.96729e-05)
(-0.000119463 0 2.17504e-05)
(-0.000138457 0 9.75956e-06)
(-0.000151342 0 5.14021e-06)
(-0.000160301 0 9.07871e-06)
(-0.000171514 0 2.43429e-05)
(-0.000193519 0 5.10114e-05)
(-0.000231775 0 6.04021e-05)
(-0.000281057 0 2.59559e-05)
(-0.000327054 0 -1.149e-05)
(-0.00036126 0 -1.00463e-05)
(-0.000397217 0 2.75438e-05)
(-0.00045182 0 8.70398e-05)
(-0.000487297 0 0.000142034)
(-0.000422549 0 0.000145277)
(-0.000275302 0 8.60594e-05)
(-0.000156449 0 2.2803e-05)
(-0.000112753 0 -1.22845e-05)
(-0.000124853 0 -3.34762e-05)
(-0.00017885 0 -5.78866e-05)
(-0.000276988 0 -8.84206e-05)
(-0.000405949 0 -9.89816e-05)
(-0.000517028 0 -6.62012e-05)
(-0.000575866 0 -2.1826e-05)
(-0.000586243 0 2.92885e-05)
(-0.000544477 0 0.000110488)
(-0.000437579 0 0.000203731)
(-0.00030119 0 0.000238009)
(-0.000193858 0 0.000236767)
(-0.000103611 0 0.000275246)
(5.96895e-05 0 -3.14065e-06)
(5.7015e-05 0 2.59578e-06)
(7.01161e-05 0 1.10991e-05)
(8.96908e-05 0 2.16051e-05)
(0.00010049 0 3.30855e-05)
(8.51279e-05 0 3.99603e-05)
(4.96788e-05 0 3.06755e-05)
(2.16019e-05 0 1.21782e-05)
(1.06196e-05 0 2.64047e-06)
(8.10103e-06 0 -6.06872e-07)
(9.72324e-06 0 -3.83317e-06)
(2.02839e-05 0 -1.34585e-05)
(5.31884e-05 0 -3.38371e-05)
(0.000112581 0 -5.3907e-05)
(0.000169876 0 -5.71316e-05)
(0.000187081 0 -5.01342e-05)
(0.000159711 0 -3.51689e-05)
(0.00011447 0 -2.56465e-06)
(7.49831e-05 0 2.85459e-05)
(4.70745e-05 0 3.24096e-05)
(3.00237e-05 0 1.8022e-05)
(2.12622e-05 0 5.81446e-06)
(1.65859e-05 0 -6.97715e-07)
(1.34338e-05 0 -4.20241e-06)
(1.11518e-05 0 -6.40109e-06)
(9.76146e-06 0 -7.48575e-06)
(8.97519e-06 0 -6.42297e-06)
(8.29788e-06 0 -2.77677e-06)
(8.29615e-06 0 1.7598e-06)
(1.0493e-05 0 6.68132e-06)
(1.53014e-05 0 1.25447e-05)
(2.10759e-05 0 1.72067e-05)
(2.63371e-05 0 1.63642e-05)
(3.08334e-05 0 1.15687e-05)
(3.32132e-05 0 7.81948e-06)
(3.16573e-05 0 6.7041e-06)
(2.65435e-05 0 7.25938e-06)
(2.04946e-05 0 7.6422e-06)
(1.63022e-05 0 7.90346e-06)
(1.52292e-05 0 9.3425e-06)
(1.70793e-05 0 1.17068e-05)
(1.99822e-05 0 1.0891e-05)
(2.17866e-05 0 2.11196e-06)
(2.30316e-05 0 -1.00146e-05)
(2.42519e-05 0 -1.78159e-05)
(2.26018e-05 0 -1.87906e-05)
(1.6711e-05 0 -1.44253e-05)
(1.02565e-05 0 -8.46892e-06)
(6.62896e-06 0 -4.23334e-06)
(5.881e-06 0 -1.76762e-06)
(7.88564e-06 0 -3.47254e-07)
(1.38631e-05 0 -1.99597e-06)
(2.41729e-05 0 -9.33531e-06)
(3.50907e-05 0 -1.61357e-05)
(4.14414e-05 0 -1.3556e-05)
(4.35728e-05 0 2.34198e-06)
(4.42839e-05 0 3.2512e-05)
(3.9356e-05 0 4.90237e-05)
(2.8435e-05 0 2.79818e-05)
(1.97415e-05 0 7.7766e-06)
(1.54162e-05 0 2.69477e-07)
(1.24876e-05 0 -2.7802e-06)
(9.34358e-06 0 -5.41257e-06)
(6.15051e-06 0 -7.51546e-06)
(4.01562e-06 0 -8.50035e-06)
(3.57118e-06 0 -8.30609e-06)
(5.05879e-06 0 -7.59536e-06)
(9.72512e-06 0 -6.10841e-06)
(2.08661e-05 0 -8.48475e-07)
(3.95894e-05 0 1.02403e-05)
(5.42684e-05 0 1.84314e-05)
(5.03314e-05 0 1.66308e-05)
(3.28693e-05 0 9.35777e-06)
(1.71633e-05 0 3.15886e-06)
(8.85708e-06 0 3.61072e-07)
(5.57843e-06 0 -5.88798e-07)
(4.5248e-06 0 -1.18467e-06)
(4.53046e-06 0 -2.14012e-06)
(5.25905e-06 0 -3.94169e-06)
(6.49451e-06 0 -7.32623e-06)
(7.85734e-06 0 -1.34482e-05)
(8.79224e-06 0 -2.09033e-05)
(9.25796e-06 0 -2.09039e-05)
(9.94682e-06 0 -1.03846e-05)
(1.1614e-05 0 1.7738e-07)
(1.49726e-05 0 6.99216e-06)
(2.03377e-05 0 1.20266e-05)
(2.57236e-05 0 1.38634e-05)
(2.77056e-05 0 1.06209e-05)
(2.65426e-05 0 5.26655e-06)
(2.59071e-05 0 1.29369e-06)
(2.8593e-05 0 4.83149e-07)
(3.54502e-05 0 2.74464e-06)
(4.47815e-05 0 5.85705e-06)
(5.22469e-05 0 6.75356e-06)
(5.41407e-05 0 5.1178e-06)
(5.10602e-05 0 8.53553e-07)
(4.62476e-05 0 -6.85828e-06)
(4.14322e-05 0 -1.09708e-05)
(3.76281e-05 0 -4.21449e-06)
(3.57507e-05 0 3.37454e-06)
(3.39828e-05 0 3.57444e-06)
(2.98687e-05 0 -1.5483e-06)
(2.23289e-05 0 -6.37879e-06)
(1.28711e-05 0 -5.72135e-06)
(5.95982e-06 0 -2.26607e-06)
(3.1104e-06 0 -3.93221e-07)
(2.40244e-06 0 5.73979e-07)
(3.0552e-06 0 2.42276e-06)
(6.75444e-06 0 8.23934e-06)
(1.52503e-05 0 1.78952e-05)
(2.21389e-05 0 1.92216e-05)
(2.07881e-05 0 1.05903e-05)
(1.59453e-05 0 2.05829e-06)
(1.29444e-05 0 -1.48966e-06)
(1.18977e-05 0 -1.33657e-06)
(1.19896e-05 0 1.49894e-06)
(1.18407e-05 0 5.84023e-06)
(1.01657e-05 0 6.78573e-06)
(8.01848e-06 0 4.09299e-06)
(6.94875e-06 0 1.97589e-06)
(6.85209e-06 0 1.3248e-06)
(7.17693e-06 0 1.56278e-06)
(7.37807e-06 0 2.27777e-06)
(6.87342e-06 0 2.60467e-06)
(5.77637e-06 0 1.83399e-06)
(4.80015e-06 0 8.23637e-07)
(4.26578e-06 0 2.7777e-07)
(4.05235e-06 0 4.14724e-08)
(4.00735e-06 0 -4.13546e-08)
(4.04569e-06 0 1.28834e-08)
(4.13927e-06 0 3.02526e-07)
(4.15042e-06 0 1.15159e-06)
(3.36944e-06 0 3.17677e-06)
(1.15938e-06 0 5.80746e-06)
(-1.15211e-06 0 6.61724e-06)
(-2.0913e-06 0 5.81396e-06)
(-2.46286e-06 0 4.93621e-06)
(-3.65025e-06 0 4.87822e-06)
(-6.37829e-06 0 5.84056e-06)
(-1.02706e-05 0 7.25238e-06)
(-1.37437e-05 0 7.67598e-06)
(-1.60401e-05 0 7.41872e-06)
(-1.84217e-05 0 7.86996e-06)
(-2.30021e-05 0 8.08805e-06)
(-3.11029e-05 0 3.80919e-06)
(-4.16444e-05 0 -5.40578e-06)
(-5.09284e-05 0 -1.04006e-05)
(-5.64535e-05 0 -7.19408e-06)
(-6.17114e-05 0 9.10845e-07)
(-7.2518e-05 0 1.01446e-05)
(-8.66393e-05 0 1.67117e-05)
(-9.38598e-05 0 2.3098e-05)
(-8.76271e-05 0 3.81208e-05)
(-7.15187e-05 0 6.84383e-05)
(-5.45441e-05 0 0.000100317)
(-3.96319e-05 0 9.44759e-05)
(-2.83218e-05 0 5.84692e-05)
(-2.63469e-05 0 3.0106e-05)
(-3.84061e-05 0 1.20027e-05)
(-7.45601e-05 0 -1.01092e-05)
(-0.000145526 0 -3.57825e-05)
(-0.000235829 0 -4.42812e-05)
(-0.000312051 0 -4.05839e-05)
(-0.000358715 0 -3.31919e-05)
(-0.000382149 0 -1.97285e-05)
(-0.00039554 0 -3.97425e-06)
(-0.000404668 0 6.16872e-06)
(-0.000404018 0 1.12093e-05)
(-0.000383386 0 1.36956e-05)
(-0.000336668 0 9.95127e-06)
(-0.000271316 0 -2.57815e-06)
(-0.0002047 0 -1.35334e-05)
(-0.000150497 0 -1.28843e-05)
(-0.000114134 0 -3.01068e-07)
(-9.89975e-05 0 2.97996e-05)
(-0.00011322 0 8.17818e-05)
(-0.000161962 0 0.000116629)
(-0.000236726 0 9.37757e-05)
(-0.000322318 0 5.22799e-05)
(-0.000398229 0 3.63004e-05)
(-0.000432648 0 5.15741e-05)
(-0.000392087 0 7.70505e-05)
(-0.000276794 0 7.22075e-05)
(-0.000146313 0 1.98743e-05)
(-6.09567e-05 0 -2.11414e-05)
(-2.50356e-05 0 -2.47704e-05)
(-1.6264e-05 0 -1.7179e-05)
(-2.0898e-05 0 -1.18471e-05)
(-3.67861e-05 0 -9.63127e-06)
(-6.71451e-05 0 -8.1788e-06)
(-0.000111637 0 -5.77081e-06)
(-0.000157474 0 -2.49547e-06)
(-0.00018827 0 4.10283e-06)
(-0.000195246 0 2.07122e-05)
(-0.000174369 0 5.6421e-05)
(-0.000133611 0 0.000110142)
(-9.60893e-05 0 0.000157686)
(-7.52694e-05 0 0.000188938)
(-6.65352e-05 0 0.000224095)
(8.34042e-05 0 -1.42344e-05)
(0.000109575 0 -9.80685e-06)
(0.000121043 0 -1.06713e-06)
(0.000122829 0 1.24106e-05)
(0.000118551 0 3.57585e-05)
(0.000104388 0 6.68125e-05)
(7.3793e-05 0 6.98672e-05)
(4.07874e-05 0 3.40689e-05)
(2.39498e-05 0 8.56972e-06)
(2.25448e-05 0 -2.61249e-06)
(3.77746e-05 0 -1.86796e-05)
(9.52357e-05 0 -6.66339e-05)
(0.000192664 0 -0.000110995)
(0.000242625 0 -8.61038e-05)
(0.00021104 0 -5.06443e-05)
(0.00015939 0 -2.21763e-05)
(0.000121922 0 1.71102e-06)
(9.7133e-05 0 3.05852e-05)
(7.25583e-05 0 5.94575e-05)
(4.35701e-05 0 5.83946e-05)
(2.135e-05 0 3.13078e-05)
(1.14912e-05 0 1.11491e-05)
(8.32687e-06 0 1.80825e-06)
(7.44364e-06 0 -2.67309e-06)
(7.2422e-06 0 -5.44693e-06)
(6.96621e-06 0 -6.7736e-06)
(6.00209e-06 0 -5.38473e-06)
(4.49912e-06 0 -1.63474e-06)
(3.30468e-06 0 1.81393e-06)
(2.88263e-06 0 4.85237e-06)
(3.28354e-06 0 9.16433e-06)
(4.59021e-06 0 1.35059e-05)
(6.87594e-06 0 1.2518e-05)
(9.75214e-06 0 8.04237e-06)
(1.24419e-05 0 6.27625e-06)
(1.46058e-05 0 7.63924e-06)
(1.56245e-05 0 1.04193e-05)
(1.46535e-05 0 1.15022e-05)
(1.26998e-05 0 1.01896e-05)
(1.20079e-05 0 8.8213e-06)
(1.42732e-05 0 8.11251e-06)
(2.0452e-05 0 5.40349e-06)
(2.91082e-05 0 -2.86122e-06)
(3.4372e-05 0 -1.15502e-05)
(3.08221e-05 0 -1.39507e-05)
(2.13836e-05 0 -1.15672e-05)
(1.32863e-05 0 -7.66056e-06)
(9.2843e-06 0 -4.77716e-06)
(8.37875e-06 0 -3.39201e-06)
(9.76204e-06 0 -3.24428e-06)
(1.40566e-05 0 -5.16979e-06)
(2.25599e-05 0 -1.16542e-05)
(3.35424e-05 0 -2.09695e-05)
(4.14939e-05 0 -2.33708e-05)
(4.46284e-05 0 -1.58061e-05)
(4.79859e-05 0 -8.96782e-07)
(5.81961e-05 0 2.48295e-05)
(7.24657e-05 0 4.73645e-05)
(7.55542e-05 0 3.74736e-05)
(6.38465e-05 0 1.8686e-05)
(4.817e-05 0 9.3619e-06)
(3.41558e-05 0 5.07027e-06)
(2.24599e-05 0 1.57677e-06)
(1.37257e-05 0 -2.57753e-06)
(8.82604e-06 0 -6.40374e-06)
(7.51086e-06 0 -8.64308e-06)
(8.86574e-06 0 -1.01009e-05)
(1.25715e-05 0 -1.1975e-05)
(1.90144e-05 0 -1.25658e-05)
(2.7592e-05 0 -5.34328e-06)
(3.58203e-05 0 1.11076e-05)
(4.01287e-05 0 2.35832e-05)
(3.67872e-05 0 2.3209e-05)
(2.67951e-05 0 1.50057e-05)
(1.66047e-05 0 7.01089e-06)
(1.02953e-05 0 2.34938e-06)
(7.37236e-06 0 -1.46245e-07)
(6.35254e-06 0 -2.16438e-06)
(6.48619e-06 0 -4.77967e-06)
(7.76726e-06 0 -9.00477e-06)
(1.03435e-05 0 -1.57087e-05)
(1.32839e-05 0 -2.25181e-05)
(1.53179e-05 0 -2.17888e-05)
(1.70905e-05 0 -1.19613e-05)
(1.93841e-05 0 -2.20684e-06)
(2.19824e-05 0 3.41958e-06)
(2.53125e-05 0 6.90398e-06)
(2.95645e-05 0 9.34806e-06)
(3.32058e-05 0 9.51293e-06)
(3.41235e-05 0 6.61977e-06)
(3.21926e-05 0 2.50691e-06)
(2.90659e-05 0 -2.89357e-07)
(2.63649e-05 0 -6.3905e-07)
(2.53971e-05 0 8.77251e-07)
(2.69056e-05 0 2.75942e-06)
(3.04629e-05 0 3.66088e-06)
(3.43018e-05 0 1.55213e-06)
(3.5438e-05 0 -3.88052e-06)
(3.22454e-05 0 -5.94061e-06)
(2.74345e-05 0 -6.2959e-07)
(2.37963e-05 0 5.30523e-06)
(1.9937e-05 0 7.27097e-06)
(1.38844e-05 0 4.92194e-06)
(7.19589e-06 0 1.37922e-06)
(2.91399e-06 0 2.60267e-07)
(1.29741e-06 0 2.80215e-07)
(8.48691e-07 0 3.58635e-07)
(7.77945e-07 0 6.00827e-07)
(1.0661e-06 0 1.45499e-06)
(2.43698e-06 0 4.13699e-06)
(6.65811e-06 0 9.28061e-06)
(1.4487e-05 0 1.31186e-05)
(2.22413e-05 0 1.02897e-05)
(2.60763e-05 0 3.36688e-06)
(2.80522e-05 0 -1.77341e-06)
(3.19657e-05 0 -3.91955e-06)
(3.95009e-05 0 -3.54518e-06)
(4.96514e-05 0 8.82757e-07)
(5.45757e-05 0 8.49394e-06)
(4.81981e-05 0 1.09095e-05)
(3.7623e-05 0 6.80422e-06)
(3.08079e-05 0 3.40818e-06)
(2.74616e-05 0 2.50083e-06)
(2.45212e-05 0 4.07897e-06)
(1.9145e-05 0 6.6844e-06)
(1.22682e-05 0 5.72811e-06)
(7.22165e-06 0 2.95224e-06)
(4.60704e-06 0 1.29815e-06)
(3.25158e-06 0 5.89989e-07)
(2.41834e-06 0 2.88367e-07)
(1.8538e-06 0 2.09361e-07)
(1.47162e-06 0 3.9464e-07)
(1.20504e-06 0 1.31492e-06)
(9.20893e-07 0 4.07857e-06)
(5.15692e-07 0 7.52093e-06)
(-9.10027e-08 0 7.82196e-06)
(-1.14716e-06 0 6.60458e-06)
(-3.21472e-06 0 6.58471e-06)
(-7.27005e-06 0 8.47245e-06)
(-1.32214e-05 0 1.09257e-05)
(-1.81344e-05 0 1.09725e-05)
(-2.00808e-05 0 9.37536e-06)
(-2.09683e-05 0 8.90332e-06)
(-2.31666e-05 0 1.09653e-05)
(-2.71137e-05 0 1.35201e-05)
(-3.11847e-05 0 1.05491e-05)
(-3.56103e-05 0 2.8214e-06)
(-4.24893e-05 0 -2.46477e-06)
(-5.02925e-05 0 -1.80171e-06)
(-5.47671e-05 0 5.25101e-06)
(-5.21093e-05 0 1.39532e-05)
(-4.25362e-05 0 1.74513e-05)
(-3.1604e-05 0 1.86467e-05)
(-2.3236e-05 0 2.79714e-05)
(-1.75175e-05 0 5.67607e-05)
(-1.51398e-05 0 9.26419e-05)
(-1.58238e-05 0 8.79224e-05)
(-1.86235e-05 0 5.65123e-05)
(-2.50304e-05 0 3.64949e-05)
(-3.76608e-05 0 3.03034e-05)
(-5.76973e-05 0 2.77805e-05)
(-7.87783e-05 0 1.83743e-05)
(-9.27534e-05 0 5.8409e-06)
(-0.000103341 0 -3.89675e-06)
(-0.000117133 0 -9.42307e-06)
(-0.000129547 0 -7.64969e-06)
(-0.000131391 0 -8.17133e-07)
(-0.000122573 0 3.32155e-06)
(-0.000111449 0 2.28208e-06)
(-0.000105919 0 -3.53879e-06)
(-0.000110356 0 -1.50959e-05)
(-0.00012132 0 -3.19191e-05)
(-0.000125099 0 -4.70288e-05)
(-0.000114219 0 -4.44719e-05)
(-0.00010051 0 -1.87852e-05)
(-0.000104991 0 3.76281e-05)
(-0.00014382 0 0.000127004)
(-0.000200735 0 0.000177062)
(-0.00024188 0 0.000149252)
(-0.000264946 0 0.000105462)
(-0.000280101 0 7.41851e-05)
(-0.000281779 0 4.97866e-05)
(-0.000265633 0 2.21305e-05)
(-0.000235913 0 -1.78851e-05)
(-0.000188077 0 -6.83502e-05)
(-0.000122659 0 -8.36913e-05)
(-6.75417e-05 0 -5.32588e-05)
(-4.28422e-05 0 -2.21616e-05)
(-4.16675e-05 0 -3.405e-06)
(-4.96541e-05 0 5.8012e-06)
(-5.30024e-05 0 1.0096e-05)
(-4.51925e-05 0 1.26362e-05)
(-3.16752e-05 0 1.14175e-05)
(-2.10024e-05 0 1.03134e-05)
(-1.57988e-05 0 1.62737e-05)
(-1.60059e-05 0 4.01892e-05)
(-2.3779e-05 0 9.33893e-05)
(-4.45009e-05 0 0.000157639)
(-7.99873e-05 0 0.000203652)
(-0.000115137 0 0.000235796)
(7.8233e-05 0 -4.38716e-05)
(9.46535e-05 0 -2.2761e-05)
(0.000101589 0 -6.51626e-06)
(0.000110158 0 7.50472e-06)
(0.000129517 0 2.5583e-05)
(0.000167192 0 5.34764e-05)
(0.000208983 0 7.20075e-05)
(0.000221064 0 5.28538e-05)
(0.000208893 0 1.87931e-05)
(0.000209673 0 -1.22107e-05)
(0.000229852 0 -4.44907e-05)
(0.000224581 0 -9.30127e-05)
(0.000153194 0 -0.000110657)
(7.01472e-05 0 -5.33556e-05)
(3.19544e-05 0 -1.36142e-05)
(2.28591e-05 0 1.53885e-06)
(2.64077e-05 0 1.19153e-05)
(4.05426e-05 0 3.10346e-05)
(5.78806e-05 0 6.62448e-05)
(5.52355e-05 0 8.32406e-05)
(3.38248e-05 0 5.00925e-05)
(1.83587e-05 0 1.76893e-05)
(1.42089e-05 0 2.58222e-06)
(1.57167e-05 0 -4.07164e-06)
(1.87762e-05 0 -6.90647e-06)
(1.97726e-05 0 -6.03453e-06)
(1.69348e-05 0 -2.32187e-06)
(1.23045e-05 0 1.43571e-06)
(8.60465e-06 0 3.63772e-06)
(6.45807e-06 0 5.59722e-06)
(5.3898e-06 0 9.08684e-06)
(4.97237e-06 0 1.26941e-05)
(5.24737e-06 0 1.0769e-05)
(6.05482e-06 0 6.10767e-06)
(7.12873e-06 0 4.44731e-06)
(8.83986e-06 0 5.59311e-06)
(1.14176e-05 0 8.86898e-06)
(1.36141e-05 0 1.18271e-05)
(1.38541e-05 0 1.15785e-05)
(1.33482e-05 0 8.6302e-06)
(1.52324e-05 0 4.15411e-06)
(2.2031e-05 0 -3.61551e-06)
(3.19244e-05 0 -1.23919e-05)
(3.66267e-05 0 -1.19856e-05)
(3.27918e-05 0 -6.13056e-06)
(2.73203e-05 0 -4.47738e-06)
(2.69041e-05 0 -6.2368e-06)
(3.47618e-05 0 -1.00566e-05)
(5.37836e-05 0 -1.62289e-05)
(8.34857e-05 0 -2.14928e-05)
(0.000114448 0 -2.21777e-05)
(0.000132667 0 -2.13695e-05)
(0.00013126 0 -2.08297e-05)
(0.000116883 0 -1.70852e-05)
(0.00010203 0 -1.03724e-05)
(9.45919e-05 0 -2.25037e-06)
(9.99844e-05 0 1.05803e-05)
(0.000120978 0 2.63502e-05)
(0.000145444 0 3.09339e-05)
(0.000155336 0 2.70415e-05)
(0.000147515 0 2.45033e-05)
(0.00012774 0 2.37187e-05)
(0.000102049 0 2.03145e-05)
(7.90044e-05 0 1.04638e-05)
(6.66328e-05 0 -2.17384e-06)
(6.59907e-05 0 -1.09157e-05)
(7.15347e-05 0 -1.47271e-05)
(7.68591e-05 0 -1.63788e-05)
(7.6564e-05 0 -1.43099e-05)
(6.81545e-05 0 -3.76718e-06)
(5.78796e-05 0 1.15781e-05)
(5.3726e-05 0 2.29577e-05)
(5.27253e-05 0 2.81767e-05)
(4.61451e-05 0 2.66103e-05)
(3.33924e-05 0 1.83494e-05)
(2.18259e-05 0 8.88675e-06)
(1.56933e-05 0 2.37194e-06)
(1.4105e-05 0 -2.07441e-06)
(1.52819e-05 0 -6.18021e-06)
(1.75261e-05 0 -1.11295e-05)
(1.86248e-05 0 -1.72589e-05)
(1.69231e-05 0 -2.22065e-05)
(1.39737e-05 0 -2.1185e-05)
(1.31591e-05 0 -1.35232e-05)
(1.49232e-05 0 -4.70258e-06)
(1.72306e-05 0 1.00969e-06)
(1.90122e-05 0 4.20213e-06)
(2.01092e-05 0 6.70088e-06)
(1.99582e-05 0 8.66982e-06)
(1.79189e-05 0 8.58441e-06)
(1.45009e-05 0 5.8912e-06)
(1.12705e-05 0 2.68348e-06)
(9.32012e-06 0 1.03946e-06)
(8.71128e-06 0 7.75391e-07)
(9.1462e-06 0 9.17822e-07)
(1.04507e-05 0 6.40668e-07)
(1.25247e-05 0 -1.34052e-06)
(1.50524e-05 0 -4.65179e-06)
(1.76974e-05 0 -4.6218e-06)
(2.01693e-05 0 3.90654e-07)
(2.11307e-05 0 6.96185e-06)
(1.82444e-05 0 1.23599e-05)
(1.15152e-05 0 1.26149e-05)
(5.12857e-06 0 6.7613e-06)
(2.0469e-06 0 2.24175e-06)
(1.15722e-06 0 8.04998e-07)
(9.65237e-07 0 4.74556e-07)
(1.03469e-06 0 4.86203e-07)
(1.43908e-06 0 8.77059e-07)
(2.76297e-06 0 2.02016e-06)
(7.17542e-06 0 2.76387e-06)
(2.09757e-05 0 -1.99377e-06)
(5.37222e-05 0 -1.50987e-05)
(0.000100517 0 -2.1874e-05)
(0.000138527 0 -1.65192e-05)
(0.000156534 0 -1.1094e-05)
(0.000160865 0 -8.23681e-06)
(0.000158717 0 -2.4285e-06)
(0.00015327 0 1.23285e-05)
(0.000141242 0 2.548e-05)
(0.000120358 0 2.36934e-05)
(9.67398e-05 0 1.69522e-05)
(7.38313e-05 0 1.52115e-05)
(4.97554e-05 0 1.83847e-05)
(2.78009e-05 0 1.97094e-05)
(1.36333e-05 0 1.37476e-05)
(6.97758e-06 0 6.635e-06)
(4.29184e-06 0 2.91573e-06)
(3.15612e-06 0 1.4636e-06)
(2.52687e-06 0 8.77246e-07)
(2.06718e-06 0 6.44712e-07)
(1.67496e-06 0 7.33684e-07)
(1.25222e-06 0 1.6652e-06)
(6.77885e-07 0 4.58676e-06)
(1.53036e-07 0 7.94279e-06)
(-2.17865e-07 0 8.37769e-06)
(-1.08641e-06 0 7.97354e-06)
(-3.04303e-06 0 9.23993e-06)
(-5.6352e-06 0 1.24647e-05)
(-7.8885e-06 0 1.51381e-05)
(-1.01264e-05 0 1.3911e-05)
(-1.32451e-05 0 1.15019e-05)
(-1.72998e-05 0 1.17191e-05)
(-2.1169e-05 0 1.42171e-05)
(-2.10813e-05 0 1.41275e-05)
(-1.63432e-05 0 9.27469e-06)
(-1.22158e-05 0 4.39392e-06)
(-1.15827e-05 0 2.20866e-06)
(-1.27538e-05 0 2.49904e-06)
(-1.24978e-05 0 5.16892e-06)
(-9.07681e-06 0 7.95648e-06)
(-4.7777e-06 0 9.57583e-06)
(-2.26877e-06 0 1.3081e-05)
(-1.66635e-06 0 2.45667e-05)
(-2.63488e-06 0 5.54154e-05)
(-5.03056e-06 0 9.40051e-05)
(-8.30509e-06 0 9.05177e-05)
(-1.33697e-05 0 6.17813e-05)
(-2.13593e-05 0 4.56223e-05)
(-2.97747e-05 0 4.2222e-05)
(-3.13302e-05 0 3.7454e-05)
(-2.31976e-05 0 2.16492e-05)
(-1.35135e-05 0 6.85695e-06)
(-8.30694e-06 0 4.68412e-07)
(-6.36242e-06 0 -1.94141e-06)
(-5.85948e-06 0 -3.21991e-06)
(-5.74456e-06 0 -3.51725e-06)
(-5.60954e-06 0 -2.93147e-06)
(-5.81972e-06 0 -2.37921e-06)
(-7.5191e-06 0 -2.70783e-06)
(-1.36234e-05 0 -5.38586e-06)
(-3.06417e-05 0 -1.36469e-05)
(-6.57591e-05 0 -2.6404e-05)
(-0.000115336 0 -2.64005e-05)
(-0.000165384 0 -5.1656e-07)
(-0.000201158 0 5.96137e-05)
(-0.000200405 0 0.000143094)
(-0.000158373 0 0.000175855)
(-0.000109846 0 0.000143079)
(-8.01989e-05 0 0.000105053)
(-6.55908e-05 0 7.51411e-05)
(-6.0699e-05 0 4.56169e-05)
(-6.78189e-05 0 1.72739e-05)
(-9.63019e-05 0 -1.42648e-05)
(-0.000155805 0 -6.03035e-05)
(-0.000211851 0 -0.00010111)
(-0.000192494 0 -0.000110314)
(-0.000113662 0 -6.86374e-05)
(-5.45832e-05 0 -1.71828e-05)
(-2.96532e-05 0 2.63561e-06)
(-1.75973e-05 0 4.55395e-06)
(-1.0571e-05 0 3.34214e-06)
(-6.61192e-06 0 3.23518e-06)
(-4.60411e-06 0 5.81507e-06)
(-4.16347e-06 0 1.51278e-05)
(-6.68572e-06 0 4.40644e-05)
(-1.93021e-05 0 0.000109904)
(-5.4737e-05 0 0.000197281)
(-0.000115342 0 0.000260101)
(-0.000150655 0 0.000249809)
(5.24778e-05 0 -4.25823e-05)
(3.36558e-05 0 -2.16488e-05)
(2.841e-05 0 -9.31822e-06)
(3.349e-05 0 -3.34241e-06)
(5.24282e-05 0 -1.86714e-06)
(9.82793e-05 0 -2.59961e-06)
(0.00017832 0 6.25234e-06)
(0.000267914 0 1.69348e-05)
(0.000325254 0 9.54242e-06)
(0.000326261 0 -4.74635e-06)
(0.000267714 0 -1.35876e-05)
(0.000168091 0 -1.9022e-05)
(7.59771e-05 0 -2.11474e-05)
(2.73748e-05 0 -1.12161e-05)
(1.19607e-05 0 -2.14678e-06)
(8.60919e-06 0 2.51821e-06)
(9.44211e-06 0 6.55437e-06)
(1.55665e-05 0 1.61363e-05)
(3.63353e-05 0 4.30363e-05)
(7.24475e-05 0 7.29821e-05)
(9.33556e-05 0 6.08535e-05)
(8.5888e-05 0 2.98619e-05)
(7.17346e-05 0 8.71284e-06)
(6.0299e-05 0 -2.74541e-07)
(4.95265e-05 0 -2.99055e-06)
(4.02316e-05 0 -1.652e-06)
(3.48631e-05 0 1.50186e-06)
(3.31954e-05 0 3.91006e-06)
(3.2713e-05 0 5.34558e-06)