/*--------------------------------*- C++ -*----------------------------------*\
  =========                 |
  \\      /  F ield         | OpenFOAM: The Open Source CFD Toolbox
   \\    /   O peration     | Website:  https://openfoam.org
    \\  /    A nd           | Version:  8
     \\/     M anipulation  |
\*---------------------------------------------------------------------------*/
FoamFile
{
    version     2.0;
    format      ascii;
    class       volSymmTensorField;
    location    "0";
    object      K;
}
// * * * * * * * * * * * * * * * * * * * * * * * * * * * * * * * * * * * * * //

dimensions      [0 2 0 0 0 0 0];

internalField   nonuniform List<symmTensor> 
20000
(
(4.45542e-09 0 0 4.45542e-09 0 4.45542e-09)
(4.15624e-09 0 0 4.15624e-09 0 4.15624e-09)
(3.81196e-09 0 0 3.81196e-09 0 3.81196e-09)
(3.43923e-09 0 0 3.43923e-09 0 3.43923e-09)
(3.05459e-09 0 0 3.05459e-09 0 3.05459e-09)
(2.67309e-09 0 0 2.67309e-09 0 2.67309e-09)
(2.30733e-09 0 0 2.30733e-09 0 2.30733e-09)
(1.96685e-09 0 0 1.96685e-09 0 1.96685e-09)
(1.65803e-09 0 0 1.65803e-09 0 1.65803e-09)
(1.38426e-09 0 0 1.38426e-09 0 1.38426e-09)
(1.14637e-09 0 0 1.14637e-09 0 1.14637e-09)
(9.43273e-10 0 0 9.43273e-10 0 9.43273e-10)
(7.72485e-10 0 0 7.72485e-10 0 7.72485e-10)
(6.30716e-10 0 0 6.30716e-10 0 6.30716e-10)
(5.14307e-10 0 0 5.14307e-10 0 5.14307e-10)
(4.19568e-10 0 0 4.19568e-10 0 4.19568e-10)
(3.43006e-10 0 0 3.43006e-10 0 3.43006e-10)
(2.81468e-10 0 0 2.81468e-10 0 2.81468e-10)
(2.32198e-10 0 0 2.32198e-10 0 2.32198e-10)
(1.92852e-10 0 0 1.92852e-10 0 1.92852e-10)
(1.61481e-10 0 0 1.61481e-10 0 1.61481e-10)
(1.36487e-10 0 0 1.36487e-10 0 1.36487e-10)
(1.16582e-10 0 0 1.16582e-10 0 1.16582e-10)
(1.00734e-10 0 0 1.00734e-10 0 1.00734e-10)
(8.81289e-11 0 0 8.81289e-11 0 8.81289e-11)
(7.81236e-11 0 0 7.81236e-11 0 7.81236e-11)
(7.02176e-11 0 0 7.02176e-11 0 7.02176e-11)
(6.4023e-11 0 0 6.4023e-11 0 6.4023e-11)
(5.92416e-11 0 0 5.92416e-11 0 5.92416e-11)
(5.56477e-11 0 0 5.56477e-11 0 5.56477e-11)
(5.30744e-11 0 0 5.30744e-11 0 5.30744e-11)
(5.14031e-11 0 0 5.14031e-11 0 5.14031e-11)
(5.0556e-11 0 0 5.0556e-11 0 5.0556e-11)
(5.0492e-11 0 0 5.0492e-11 0 5.0492e-11)
(5.12033e-11 0 0 5.12033e-11 0 5.12033e-11)
(5.27155e-11 0 0 5.27155e-11 0 5.27155e-11)
(5.50893e-11 0 0 5.50893e-11 0 5.50893e-11)
(5.84245e-11 0 0 5.84245e-11 0 5.84245e-11)
(6.28671e-11 0 0 6.28671e-11 0 6.28671e-11)
(6.86195e-11 0 0 6.86195e-11 0 6.86195e-11)
(7.59553e-11 0 0 7.59553e-11 0 7.59553e-11)
(8.52403e-11 0 0 8.52403e-11 0 8.52403e-11)
(9.69609e-11 0 0 9.69609e-11 0 9.69609e-11)
(1.11764e-10 0 0 1.11764e-10 0 1.11764e-10)
(1.30513e-10 0 0 1.30513e-10 0 1.30513e-10)
(1.54361e-10 0 0 1.54361e-10 0 1.54361e-10)
(1.84861e-10 0 0 1.84861e-10 0 1.84861e-10)
(2.24114e-10 0 0 2.24114e-10 0 2.24114e-10)
(2.74975e-10 0 0 2.74975e-10 0 2.74975e-10)
(3.4135e-10 0 0 3.4135e-10 0 3.4135e-10)
(4.28615e-10 0 0 4.28615e-10 0 4.28615e-10)
(5.44205e-10 0 0 5.44205e-10 0 5.44205e-10)
(6.98468e-10 0 0 6.98468e-10 0 6.98468e-10)
(9.05869e-10 0 0 9.05869e-10 0 9.05869e-10)
(1.18673e-09 0 0 1.18673e-09 0 1.18673e-09)
(1.56974e-09 0 0 1.56974e-09 0 1.56974e-09)
(2.0955e-09 0 0 2.0955e-09 0 2.0955e-09)
(2.82175e-09 0 0 2.82175e-09 0 2.82175e-09)
(3.83071e-09 0 0 3.83071e-09 0 3.83071e-09)
(5.23978e-09 0 0 5.23978e-09 0 5.23978e-09)
(7.21671e-09 0 0 7.21671e-09 0 7.21671e-09)
(1.00013e-08 0 0 1.00013e-08 0 1.00013e-08)
(1.3936e-08 0 0 1.3936e-08 0 1.3936e-08)
(1.95093e-08 0 0 1.95093e-08 0 1.95093e-08)
(2.74159e-08 0 0 2.74159e-08 0 2.74159e-08)
(3.86397e-08 0 0 3.86397e-08 0 3.86397e-08)
(5.45672e-08 0 0 5.45672e-08 0 5.45672e-08)
(7.71395e-08 0 0 7.71395e-08 0 7.71395e-08)
(1.09052e-07 0 0 1.09052e-07 0 1.09052e-07)
(1.54011e-07 0 0 1.54011e-07 0 1.54011e-07)
(2.17056e-07 0 0 2.17056e-07 0 2.17056e-07)
(3.04948e-07 0 0 3.04948e-07 0 3.04948e-07)
(4.26619e-07 0 0 4.26619e-07 0 4.26619e-07)
(5.93658e-07 0 0 5.93658e-07 0 5.93658e-07)
(8.20795e-07 0 0 8.20795e-07 0 8.20795e-07)
(1.12631e-06 0 0 1.12631e-06 0 1.12631e-06)
(1.53227e-06 0 0 1.53227e-06 0 1.53227e-06)
(2.06442e-06 0 0 2.06442e-06 0 2.06442e-06)
(2.75164e-06 0 0 2.75164e-06 0 2.75164e-06)
(3.62468e-06 0 0 3.62468e-06 0 3.62468e-06)
(4.71414e-06 0 0 4.71414e-06 0 4.71414e-06)
(6.04751e-06 0 0 6.04751e-06 0 6.04751e-06)
(7.64534e-06 0 0 7.64534e-06 0 7.64534e-06)
(9.51676e-06 0 0 9.51676e-06 0 9.51676e-06)
(1.16547e-05 0 0 1.16547e-05 0 1.16547e-05)
(1.40316e-05 0 0 1.40316e-05 0 1.40316e-05)
(1.6596e-05 0 0 1.6596e-05 0 1.6596e-05)
(1.92716e-05 0 0 1.92716e-05 0 1.92716e-05)
(2.19585e-05 0 0 2.19585e-05 0 2.19585e-05)
(2.45381e-05 0 0 2.45381e-05 0 2.45381e-05)
(2.68809e-05 0 0 2.68809e-05 0 2.68809e-05)
(2.88574e-05 0 0 2.88574e-05 0 2.88574e-05)
(3.03497e-05 0 0 3.03497e-05 0 3.03497e-05)
(3.12636e-05 0 0 3.12636e-05 0 3.12636e-05)
(3.15393e-05 0 0 3.15393e-05 0 3.15393e-05)
(3.11574e-05 0 0 3.11574e-05 0 3.11574e-05)
(3.01417e-05 0 0 3.01417e-05 0 3.01417e-05)
(2.85564e-05 0 0 2.85564e-05 0 2.85564e-05)
(2.64992e-05 0 0 2.64992e-05 0 2.64992e-05)
(2.40908e-05 0 0 2.40908e-05 0 2.40908e-05)
(2.14627e-05 0 0 2.14627e-05 0 2.14627e-05)
(1.87452e-05 0 0 1.87452e-05 0 1.87452e-05)
(1.60567e-05 0 0 1.60567e-05 0 1.60567e-05)
(1.34957e-05 0 0 1.34957e-05 0 1.34957e-05)
(1.11368e-05 0 0 1.11368e-05 0 1.11368e-05)
(9.0287e-06 0 0 9.0287e-06 0 9.0287e-06)
(7.19602e-06 0 0 7.19602e-06 0 7.19602e-06)
(5.64282e-06 0 0 5.64282e-06 0 5.64282e-06)
(4.3571e-06 0 0 4.3571e-06 0 4.3571e-06)
(3.31577e-06 0 0 3.31577e-06 0 3.31577e-06)
(2.48927e-06 0 0 2.48927e-06 0 2.48927e-06)
(1.84544e-06 0 0 1.84544e-06 0 1.84544e-06)
(1.3525e-06 0 0 1.3525e-06 0 1.3525e-06)
(9.81001e-07 0 0 9.81001e-07 0 9.81001e-07)
(7.05037e-07 0 0 7.05037e-07 0 7.05037e-07)
(5.02687e-07 0 0 5.02687e-07 0 5.02687e-07)
(3.56024e-07 0 0 3.56024e-07 0 3.56024e-07)
(2.508e-07 0 0 2.508e-07 0 2.508e-07)
(1.75965e-07 0 0 1.75965e-07 0 1.75965e-07)
(1.23133e-07 0 0 1.23133e-07 0 1.23133e-07)
(8.60557e-08 0 0 8.60557e-08 0 8.60557e-08)
(6.0152e-08 0 0 6.0152e-08 0 6.0152e-08)
(4.21115e-08 0 0 4.21115e-08 0 4.21115e-08)
(2.95694e-08 0 0 2.95694e-08 0 2.95694e-08)
(2.08534e-08 0 0 2.08534e-08 0 2.08534e-08)
(1.4791e-08 0 0 1.4791e-08 0 1.4791e-08)
(1.05652e-08 0 0 1.05652e-08 0 1.05652e-08)
(7.6098e-09 0 0 7.6098e-09 0 7.6098e-09)
(5.53361e-09 0 0 5.53361e-09 0 5.53361e-09)
(4.06704e-09 0 0 4.06704e-09 0 4.06704e-09)
(3.02441e-09 0 0 3.02441e-09 0 3.02441e-09)
(2.27778e-09 0 0 2.27778e-09 0 2.27778e-09)
(1.73886e-09 0 0 1.73886e-09 0 1.73886e-09)
(1.34654e-09 0 0 1.34654e-09 0 1.34654e-09)
(1.05838e-09 0 0 1.05838e-09 0 1.05838e-09)
(8.44796e-10 0 0 8.44796e-10 0 8.44796e-10)
(6.85018e-10 0 0 6.85018e-10 0 6.85018e-10)
(5.64405e-10 0 0 5.64405e-10 0 5.64405e-10)
(4.72564e-10 0 0 4.72564e-10 0 4.72564e-10)
(4.02061e-10 0 0 4.02061e-10 0 4.02061e-10)
(3.47548e-10 0 0 3.47548e-10 0 3.47548e-10)
(3.0514e-10 0 0 3.0514e-10 0 3.0514e-10)
(2.72002e-10 0 0 2.72002e-10 0 2.72002e-10)
(2.46044e-10 0 0 2.46044e-10 0 2.46044e-10)
(2.25714e-10 0 0 2.25714e-10 0 2.25714e-10)
(2.09852e-10 0 0 2.09852e-10 0 2.09852e-10)
(1.97585e-10 0 0 1.97585e-10 0 1.97585e-10)
(1.8825e-10 0 0 1.8825e-10 0 1.8825e-10)
(1.81343e-10 0 0 1.81343e-10 0 1.81343e-10)
(1.76476e-10 0 0 1.76476e-10 0 1.76476e-10)
(1.73349e-10 0 0 1.73349e-10 0 1.73349e-10)
(1.71733e-10 0 0 1.71733e-10 0 1.71733e-10)
(1.71452e-10 0 0 1.71452e-10 0 1.71452e-10)
(1.72371e-10 0 0 1.72371e-10 0 1.72371e-10)
(1.74391e-10 0 0 1.74391e-10 0 1.74391e-10)
(1.77443e-10 0 0 1.77443e-10 0 1.77443e-10)
(1.81486e-10 0 0 1.81486e-10 0 1.81486e-10)
(1.86501e-10 0 0 1.86501e-10 0 1.86501e-10)
(1.92498e-10 0 0 1.92498e-10 0 1.92498e-10)
(1.9951e-10 0 0 1.9951e-10 0 1.9951e-10)
(2.07602e-10 0 0 2.07602e-10 0 2.07602e-10)
(2.16866e-10 0 0 2.16866e-10 0 2.16866e-10)
(2.27429e-10 0 0 2.27429e-10 0 2.27429e-10)
(2.3946e-10 0 0 2.3946e-10 0 2.3946e-10)
(2.53171e-10 0 0 2.53171e-10 0 2.53171e-10)
(2.68824e-10 0 0 2.68824e-10 0 2.68824e-10)
(2.86744e-10 0 0 2.86744e-10 0 2.86744e-10)
(3.07324e-10 0 0 3.07324e-10 0 3.07324e-10)
(3.31039e-10 0 0 3.31039e-10 0 3.31039e-10)
(3.58455e-10 0 0 3.58455e-10 0 3.58455e-10)
(3.90254e-10 0 0 3.90254e-10 0 3.90254e-10)
(4.27242e-10 0 0 4.27242e-10 0 4.27242e-10)
(4.70371e-10 0 0 4.70371e-10 0 4.70371e-10)
(5.20762e-10 0 0 5.20762e-10 0 5.20762e-10)
(5.79719e-10 0 0 5.79719e-10 0 5.79719e-10)
(6.48748e-10 0 0 6.48748e-10 0 6.48748e-10)
(7.29565e-10 0 0 7.29565e-10 0 7.29565e-10)
(8.24094e-10 0 0 8.24094e-10 0 8.24094e-10)
(9.34443e-10 0 0 9.34443e-10 0 9.34443e-10)
(1.06286e-09 0 0 1.06286e-09 0 1.06286e-09)
(1.21164e-09 0 0 1.21164e-09 0 1.21164e-09)
(1.383e-09 0 0 1.383e-09 0 1.383e-09)
(1.57889e-09 0 0 1.57889e-09 0 1.57889e-09)
(1.8007e-09 0 0 1.8007e-09 0 1.8007e-09)
(2.04901e-09 0 0 2.04901e-09 0 2.04901e-09)
(2.32314e-09 0 0 2.32314e-09 0 2.32314e-09)
(2.6208e-09 0 0 2.6208e-09 0 2.6208e-09)
(2.93768e-09 0 0 2.93768e-09 0 2.93768e-09)
(3.26716e-09 0 0 3.26716e-09 0 3.26716e-09)
(3.60017e-09 0 0 3.60017e-09 0 3.60017e-09)
(3.92529e-09 0 0 3.92529e-09 0 3.92529e-09)
(4.22917e-09 0 0 4.22917e-09 0 4.22917e-09)
(4.4973e-09 0 0 4.4973e-09 0 4.4973e-09)
(4.71506e-09 0 0 4.71506e-09 0 4.71506e-09)
(4.86904e-09 0 0 4.86904e-09 0 4.86904e-09)
(4.94846e-09 0 0 4.94846e-09 0 4.94846e-09)
(4.94638e-09 0 0 4.94638e-09 0 4.94638e-09)
(4.86064e-09 0 0 4.86064e-09 0 4.86064e-09)
(4.69431e-09 0 0 4.69431e-09 0 4.69431e-09)
(4.45542e-09 0 0 4.45542e-09 0 4.45542e-09)
(3.59369e-09 0 0 3.59369e-09 0 3.59369e-09)
(3.31348e-09 0 0 3.31348e-09 0 3.31348e-09)
(3.00549e-09 0 0 3.00549e-09 0 3.00549e-09)
(2.68332e-09 0 0 2.68332e-09 0 2.68332e-09)
(2.35982e-09 0 0 2.35982e-09 0 2.35982e-09)
(2.04615e-09 0 0 2.04615e-09 0 2.04615e-09)
(1.75114e-09 0 0 1.75114e-09 0 1.75114e-09)
(1.48105e-09 0 0 1.48105e-09 0 1.48105e-09)
(1.2396e-09 0 0 1.2396e-09 0 1.2396e-09)
(1.02825e-09 0 0 1.02825e-09 0 1.02825e-09)
(8.46658e-10 0 0 8.46658e-10 0 8.46658e-10)
(6.93152e-10 0 0 6.93152e-10 0 6.93152e-10)
(5.6519e-10 0 0 5.6519e-10 0 5.6519e-10)
(4.59785e-10 0 0 4.59785e-10 0 4.59785e-10)
(3.73815e-10 0 0 3.73815e-10 0 3.73815e-10)
(3.04256e-10 0 0 3.04256e-10 0 3.04256e-10)
(2.48327e-10 0 0 2.48327e-10 0 2.48327e-10)
(2.03568e-10 0 0 2.03568e-10 0 2.03568e-10)
(1.67864e-10 0 0 1.67864e-10 0 1.67864e-10)
(1.39443e-10 0 0 1.39443e-10 0 1.39443e-10)
(1.16843e-10 0 0 1.16843e-10 0 1.16843e-10)
(9.88812e-11 0 0 9.88812e-11 0 9.88812e-11)
(8.46068e-11 0 0 8.46068e-11 0 8.46068e-11)
(7.32666e-11 0 0 7.32666e-11 0 7.32666e-11)
(6.42671e-11 0 0 6.42671e-11 0 6.42671e-11)
(5.71441e-11 0 0 5.71441e-11 0 5.71441e-11)
(5.15368e-11 0 0 5.15368e-11 0 5.15368e-11)
(4.71673e-11 0 0 4.71673e-11 0 4.71673e-11)
(4.38234e-11 0 0 4.38234e-11 0 4.38234e-11)
(4.13457e-11 0 0 4.13457e-11 0 4.13457e-11)
(3.96178e-11 0 0 3.96178e-11 0 3.96178e-11)
(3.85588e-11 0 0 3.85588e-11 0 3.85588e-11)
(3.81184e-11 0 0 3.81184e-11 0 3.81184e-11)
(3.82736e-11 0 0 3.82736e-11 0 3.82736e-11)
(3.90271e-11 0 0 3.90271e-11 0 3.90271e-11)
(4.04079e-11 0 0 4.04079e-11 0 4.04079e-11)
(4.24726e-11 0 0 4.24726e-11 0 4.24726e-11)
(4.53101e-11 0 0 4.53101e-11 0 4.53101e-11)
(4.9047e-11 0 0 4.9047e-11 0 4.9047e-11)
(5.3857e-11 0 0 5.3857e-11 0 5.3857e-11)
(5.99734e-11 0 0 5.99734e-11 0 5.99734e-11)
(6.77074e-11 0 0 6.77074e-11 0 6.77074e-11)
(7.74718e-11 0 0 7.74718e-11 0 7.74718e-11)
(8.98152e-11 0 0 8.98152e-11 0 8.98152e-11)
(1.05468e-10 0 0 1.05468e-10 0 1.05468e-10)
(1.25409e-10 0 0 1.25409e-10 0 1.25409e-10)
(1.50949e-10 0 0 1.50949e-10 0 1.50949e-10)
(1.83861e-10 0 0 1.83861e-10 0 1.83861e-10)
(2.26552e-10 0 0 2.26552e-10 0 2.26552e-10)
(2.82301e-10 0 0 2.82301e-10 0 2.82301e-10)
(3.55609e-10 0 0 3.55609e-10 0 3.55609e-10)
(4.52674e-10 0 0 4.52674e-10 0 4.52674e-10)
(5.82074e-10 0 0 5.82074e-10 0 5.82074e-10)
(7.55735e-10 0 0 7.55735e-10 0 7.55735e-10)
(9.9029e-10 0 0 9.9029e-10 0 9.9029e-10)
(1.30902e-09 0 0 1.30902e-09 0 1.30902e-09)
(1.74462e-09 0 0 1.74462e-09 0 1.74462e-09)
(2.34305e-09 0 0 2.34305e-09 0 2.34305e-09)
(3.16907e-09 0 0 3.16907e-09 0 3.16907e-09)
(4.31399e-09 0 0 4.31399e-09 0 4.31399e-09)
(5.90653e-09 0 0 5.90653e-09 0 5.90653e-09)
(8.12803e-09 0 0 8.12803e-09 0 8.12803e-09)
(1.12334e-08 0 0 1.12334e-08 0 1.12334e-08)
(1.55803e-08 0 0 1.55803e-08 0 1.55803e-08)
(2.16682e-08 0 0 2.16682e-08 0 2.16682e-08)
(3.01915e-08 0 0 3.01915e-08 0 3.01915e-08)
(4.21095e-08 0 0 4.21095e-08 0 4.21095e-08)
(5.87382e-08 0 0 5.87382e-08 0 5.87382e-08)
(8.18666e-08 0 0 8.18666e-08 0 8.18666e-08)
(1.13902e-07 0 0 1.13902e-07 0 1.13902e-07)
(1.58046e-07 0 0 1.58046e-07 0 1.58046e-07)
(2.18498e-07 0 0 2.18498e-07 0 2.18498e-07)
(3.00682e-07 0 0 3.00682e-07 0 3.00682e-07)
(4.11476e-07 0 0 4.11476e-07 0 4.11476e-07)
(5.59432e-07 0 0 5.59432e-07 0 5.59432e-07)
(7.54929e-07 0 0 7.54929e-07 0 7.54929e-07)
(1.01022e-06 0 0 1.01022e-06 0 1.01022e-06)
(1.33932e-06 0 0 1.33932e-06 0 1.33932e-06)
(1.75763e-06 0 0 1.75763e-06 0 1.75763e-06)
(2.28121e-06 0 0 2.28121e-06 0 2.28121e-06)
(2.92578e-06 0 0 2.92578e-06 0 2.92578e-06)
(3.70518e-06 0 0 3.70518e-06 0 3.70518e-06)
(4.62951e-06 0 0 4.62951e-06 0 4.62951e-06)
(5.70304e-06 0 0 5.70304e-06 0 5.70304e-06)
(6.92191e-06 0 0 6.92191e-06 0 6.92191e-06)
(8.2721e-06 0 0 8.2721e-06 0 8.2721e-06)
(9.72785e-06 0 0 9.72785e-06 0 9.72785e-06)
(1.1251e-05 0 0 1.1251e-05 0 1.1251e-05)
(1.27916e-05 0 0 1.27916e-05 0 1.27916e-05)
(1.42895e-05 0 0 1.42895e-05 0 1.42895e-05)
(1.56782e-05 0 0 1.56782e-05 0 1.56782e-05)
(1.68893e-05 0 0 1.68893e-05 0 1.68893e-05)
(1.7858e-05 0 0 1.7858e-05 0 1.7858e-05)
(1.85293e-05 0 0 1.85293e-05 0 1.85293e-05)
(1.88628e-05 0 0 1.88628e-05 0 1.88628e-05)
(1.88372e-05 0 0 1.88372e-05 0 1.88372e-05)
(1.84526e-05 0 0 1.84526e-05 0 1.84526e-05)
(1.77305e-05 0 0 1.77305e-05 0 1.77305e-05)
(1.67116e-05 0 0 1.67116e-05 0 1.67116e-05)
(1.54524e-05 0 0 1.54524e-05 0 1.54524e-05)
(1.40191e-05 0 0 1.40191e-05 0 1.40191e-05)
(1.2482e-05 0 0 1.2482e-05 0 1.2482e-05)
(1.09096e-05 0 0 1.09096e-05 0 1.09096e-05)
(9.3635e-06 0 0 9.3635e-06 0 9.3635e-06)
(7.89497e-06 0 0 7.89497e-06 0 7.89497e-06)
(6.54257e-06 0 0 6.54257e-06 0 6.54257e-06)
(5.33168e-06 0 0 5.33168e-06 0 5.33168e-06)
(4.27523e-06 0 0 4.27523e-06 0 4.27523e-06)
(3.3754e-06 0 0 3.3754e-06 0 3.3754e-06)
(2.62594e-06 0 0 2.62594e-06 0 2.62594e-06)
(2.01459e-06 0 0 2.01459e-06 0 2.01459e-06)
(1.52552e-06 0 0 1.52552e-06 0 1.52552e-06)
(1.14126e-06 0 0 1.14126e-06 0 1.14126e-06)
(8.44378e-07 0 0 8.44378e-07 0 8.44378e-07)
(6.185e-07 0 0 6.185e-07 0 6.185e-07)
(4.49049e-07 0 0 4.49049e-07 0 4.49049e-07)
(3.23537e-07 0 0 3.23537e-07 0 3.23537e-07)
(2.31622e-07 0 0 2.31622e-07 0 2.31622e-07)
(1.64981e-07 0 0 1.64981e-07 0 1.64981e-07)
(1.17079e-07 0 0 1.17079e-07 0 1.17079e-07)
(8.2893e-08 0 0 8.2893e-08 0 8.2893e-08)
(5.86372e-08 0 0 5.86372e-08 0 5.86372e-08)
(4.15021e-08 0 0 4.15021e-08 0 4.15021e-08)
(2.94334e-08 0 0 2.94334e-08 0 2.94334e-08)
(2.09466e-08 0 0 2.09466e-08 0 2.09466e-08)
(1.49799e-08 0 0 1.49799e-08 0 1.49799e-08)
(1.07805e-08 0 0 1.07805e-08 0 1.07805e-08)
(7.81795e-09 0 0 7.81795e-09 0 7.81795e-09)
(5.72053e-09 0 0 5.72053e-09 0 5.72053e-09)
(4.22868e-09 0 0 4.22868e-09 0 4.22868e-09)
(3.16155e-09 0 0 3.16155e-09 0 3.16155e-09)
(2.3932e-09 0 0 2.3932e-09 0 2.3932e-09)
(1.83592e-09 0 0 1.83592e-09 0 1.83592e-09)
(1.42852e-09 0 0 1.42852e-09 0 1.42852e-09)
(1.12819e-09 0 0 1.12819e-09 0 1.12819e-09)
(9.04866e-10 0 0 9.04866e-10 0 9.04866e-10)
(7.37368e-10 0 0 7.37368e-10 0 7.37368e-10)
(6.10665e-10 0 0 6.10665e-10 0 6.10665e-10)
(5.14047e-10 0 0 5.14047e-10 0 5.14047e-10)
(4.39826e-10 0 0 4.39826e-10 0 4.39826e-10)
(3.82449e-10 0 0 3.82449e-10 0 3.82449e-10)
(3.37878e-10 0 0 3.37878e-10 0 3.37878e-10)
(3.03154e-10 0 0 3.03154e-10 0 3.03154e-10)
(2.76094e-10 0 0 2.76094e-10 0 2.76094e-10)
(2.55073e-10 0 0 2.55073e-10 0 2.55073e-10)
(2.38878e-10 0 0 2.38878e-10 0 2.38878e-10)
(2.26594e-10 0 0 2.26594e-10 0 2.26594e-10)
(2.17525e-10 0 0 2.17525e-10 0 2.17525e-10)
(2.1114e-10 0 0 2.1114e-10 0 2.1114e-10)
(2.07032e-10 0 0 2.07032e-10 0 2.07032e-10)
(2.04884e-10 0 0 2.04884e-10 0 2.04884e-10)
(2.04454e-10 0 0 2.04454e-10 0 2.04454e-10)
(2.05549e-10 0 0 2.05549e-10 0 2.05549e-10)
(2.08023e-10 0 0 2.08023e-10 0 2.08023e-10)
(2.11764e-10 0 0 2.11764e-10 0 2.11764e-10)
(2.1669e-10 0 0 2.1669e-10 0 2.1669e-10)
(2.22744e-10 0 0 2.22744e-10 0 2.22744e-10)
(2.29896e-10 0 0 2.29896e-10 0 2.29896e-10)
(2.38142e-10 0 0 2.38142e-10 0 2.38142e-10)
(2.47504e-10 0 0 2.47504e-10 0 2.47504e-10)
(2.58033e-10 0 0 2.58033e-10 0 2.58033e-10)
(2.69814e-10 0 0 2.69814e-10 0 2.69814e-10)
(2.82968e-10 0 0 2.82968e-10 0 2.82968e-10)
(2.97656e-10 0 0 2.97656e-10 0 2.97656e-10)
(3.14088e-10 0 0 3.14088e-10 0 3.14088e-10)
(3.32526e-10 0 0 3.32526e-10 0 3.32526e-10)
(3.53291e-10 0 0 3.53291e-10 0 3.53291e-10)
(3.76774e-10 0 0 3.76774e-10 0 3.76774e-10)
(4.03442e-10 0 0 4.03442e-10 0 4.03442e-10)
(4.3385e-10 0 0 4.3385e-10 0 4.3385e-10)
(4.68653e-10 0 0 4.68653e-10 0 4.68653e-10)
(5.08615e-10 0 0 5.08615e-10 0 5.08615e-10)
(5.54624e-10 0 0 5.54624e-10 0 5.54624e-10)
(6.07705e-10 0 0 6.07705e-10 0 6.07705e-10)
(6.69022e-10 0 0 6.69022e-10 0 6.69022e-10)
(7.39888e-10 0 0 7.39888e-10 0 7.39888e-10)
(8.21758e-10 0 0 8.21758e-10 0 8.21758e-10)
(9.16208e-10 0 0 9.16208e-10 0 9.16208e-10)
(1.0249e-09 0 0 1.0249e-09 0 1.0249e-09)
(1.14951e-09 0 0 1.14951e-09 0 1.14951e-09)
(1.29166e-09 0 0 1.29166e-09 0 1.29166e-09)
(1.45272e-09 0 0 1.45272e-09 0 1.45272e-09)
(1.63371e-09 0 0 1.63371e-09 0 1.63371e-09)
(1.83497e-09 0 0 1.83497e-09 0 1.83497e-09)
(2.05599e-09 0 0 2.05599e-09 0 2.05599e-09)
(2.29505e-09 0 0 2.29505e-09 0 2.29505e-09)
(2.54895e-09 0 0 2.54895e-09 0 2.54895e-09)
(2.8128e-09 0 0 2.8128e-09 0 2.8128e-09)
(3.07984e-09 0 0 3.07984e-09 0 3.07984e-09)
(3.34151e-09 0 0 3.34151e-09 0 3.34151e-09)
(3.58767e-09 0 0 3.58767e-09 0 3.58767e-09)
(3.80712e-09 0 0 3.80712e-09 0 3.80712e-09)
(3.98835e-09 0 0 3.98835e-09 0 3.98835e-09)
(4.12046e-09 0 0 4.12046e-09 0 4.12046e-09)
(4.19427e-09 0 0 4.19427e-09 0 4.19427e-09)
(4.20332e-09 0 0 4.20332e-09 0 4.20332e-09)
(4.14469e-09 0 0 4.14469e-09 0 4.14469e-09)
(4.01948e-09 0 0 4.01948e-09 0 4.01948e-09)
(3.83288e-09 0 0 3.83288e-09 0 3.83288e-09)
(3.59369e-09 0 0 3.59369e-09 0 3.59369e-09)
(2.89683e-09 0 0 2.89683e-09 0 2.89683e-09)
(2.64251e-09 0 0 2.64251e-09 0 2.64251e-09)
(2.37271e-09 0 0 2.37271e-09 0 2.37271e-09)
(2.09824e-09 0 0 2.09824e-09 0 2.09824e-09)
(1.82885e-09 0 0 1.82885e-09 0 1.82885e-09)
(1.5726e-09 0 0 1.5726e-09 0 1.5726e-09)
(1.33553e-09 0 0 1.33553e-09 0 1.33553e-09)
(1.12157e-09 0 0 1.12157e-09 0 1.12157e-09)
(9.32672e-10 0 0 9.32672e-10 0 9.32672e-10)
(7.69149e-10 0 0 7.69149e-10 0 7.69149e-10)
(6.3002e-10 0 0 6.3002e-10 0 6.3002e-10)
(5.13421e-10 0 0 5.13421e-10 0 5.13421e-10)
(4.16964e-10 0 0 4.16964e-10 0 4.16964e-10)
(3.38044e-10 0 0 3.38044e-10 0 3.38044e-10)
(2.74054e-10 0 0 2.74054e-10 0 2.74054e-10)
(2.22547e-10 0 0 2.22547e-10 0 2.22547e-10)
(1.81319e-10 0 0 1.81319e-10 0 1.81319e-10)
(1.48452e-10 0 0 1.48452e-10 0 1.48452e-10)
(1.22322e-10 0 0 1.22322e-10 0 1.22322e-10)
(1.01582e-10 0 0 1.01582e-10 0 1.01582e-10)
(8.5132e-11 0 0 8.5132e-11 0 8.5132e-11)
(7.20863e-11 0 0 7.20863e-11 0 7.20863e-11)
(6.17401e-11 0 0 6.17401e-11 0 6.17401e-11)
(5.35371e-11 0 0 5.35371e-11 0 5.35371e-11)
(4.7041e-11 0 0 4.7041e-11 0 4.7041e-11)
(4.19124e-11 0 0 4.19124e-11 0 4.19124e-11)
(3.78885e-11 0 0 3.78885e-11 0 3.78885e-11)
(3.47676e-11 0 0 3.47676e-11 0 3.47676e-11)
(3.23968e-11 0 0 3.23968e-11 0 3.23968e-11)
(3.06619e-11 0 0 3.06619e-11 0 3.06619e-11)
(2.94804e-11 0 0 2.94804e-11 0 2.94804e-11)
(2.87963e-11 0 0 2.87963e-11 0 2.87963e-11)
(2.85763e-11 0 0 2.85763e-11 0 2.85763e-11)
(2.88075e-11 0 0 2.88075e-11 0 2.88075e-11)
(2.94972e-11 0 0 2.94972e-11 0 2.94972e-11)
(3.06725e-11 0 0 3.06725e-11 0 3.06725e-11)
(3.23827e-11 0 0 3.23827e-11 0 3.23827e-11)
(3.47025e-11 0 0 3.47025e-11 0 3.47025e-11)
(3.7737e-11 0 0 3.7737e-11 0 3.7737e-11)
(4.16293e-11 0 0 4.16293e-11 0 4.16293e-11)
(4.65713e-11 0 0 4.65713e-11 0 4.65713e-11)
(5.28176e-11 0 0 5.28176e-11 0 5.28176e-11)
(6.07058e-11 0 0 6.07058e-11 0 6.07058e-11)
(7.06839e-11 0 0 7.06839e-11 0 7.06839e-11)
(8.33477e-11 0 0 8.33477e-11 0 8.33477e-11)
(9.94923e-11 0 0 9.94923e-11 0 9.94923e-11)
(1.20184e-10 0 0 1.20184e-10 0 1.20184e-10)
(1.46857e-10 0 0 1.46857e-10 0 1.46857e-10)
(1.81454e-10 0 0 1.81454e-10 0 1.81454e-10)
(2.26609e-10 0 0 2.26609e-10 0 2.26609e-10)
(2.8592e-10 0 0 2.8592e-10 0 2.8592e-10)
(3.64313e-10 0 0 3.64313e-10 0 3.64313e-10)
(4.68556e-10 0 0 4.68556e-10 0 4.68556e-10)
(6.07984e-10 0 0 6.07984e-10 0 6.07984e-10)
(7.95501e-10 0 0 7.95501e-10 0 7.95501e-10)
(1.04899e-09 0 0 1.04899e-09 0 1.04899e-09)
(1.39326e-09 0 0 1.39326e-09 0 1.39326e-09)
(1.86277e-09 0 0 1.86277e-09 0 1.86277e-09)
(2.50543e-09 0 0 2.50543e-09 0 2.50543e-09)
(3.38773e-09 0 0 3.38773e-09 0 3.38773e-09)
(4.60193e-09 0 0 4.60193e-09 0 4.60193e-09)
(6.27574e-09 0 0 6.27574e-09 0 6.27574e-09)
(8.5854e-09 0 0 8.5854e-09 0 8.5854e-09)
(1.17732e-08 0 0 1.17732e-08 0 1.17732e-08)
(1.61706e-08 0 0 1.61706e-08 0 1.61706e-08)
(2.22283e-08 0 0 2.22283e-08 0 2.22283e-08)
(3.05551e-08 0 0 3.05551e-08 0 3.05551e-08)
(4.19661e-08 0 0 4.19661e-08 0 4.19661e-08)
(5.75426e-08 0 0 5.75426e-08 0 5.75426e-08)
(7.87037e-08 0 0 7.87037e-08 0 7.87037e-08)
(1.07289e-07 0 0 1.07289e-07 0 1.07289e-07)
(1.45648e-07 0 0 1.45648e-07 0 1.45648e-07)
(1.96738e-07 0 0 1.96738e-07 0 1.96738e-07)
(2.64215e-07 0 0 2.64215e-07 0 2.64215e-07)
(3.52503e-07 0 0 3.52503e-07 0 3.52503e-07)
(4.66838e-07 0 0 4.66838e-07 0 4.66838e-07)
(6.1325e-07 0 0 6.1325e-07 0 6.1325e-07)
(7.9846e-07 0 0 7.9846e-07 0 7.9846e-07)
(1.02968e-06 0 0 1.02968e-06 0 1.02968e-06)
(1.31428e-06 0 0 1.31428e-06 0 1.31428e-06)
(1.65926e-06 0 0 1.65926e-06 0 1.65926e-06)
(2.07067e-06 0 0 2.07067e-06 0 2.07067e-06)
(2.55275e-06 0 0 2.55275e-06 0 2.55275e-06)
(3.10711e-06 0 0 3.10711e-06 0 3.10711e-06)
(3.73179e-06 0 0 3.73179e-06 0 3.73179e-06)
(4.42043e-06 0 0 4.42043e-06 0 4.42043e-06)
(5.16161e-06 0 0 5.16161e-06 0 5.16161e-06)
(5.93857e-06 0 0 5.93857e-06 0 5.93857e-06)
(6.7293e-06 0 0 6.7293e-06 0 6.7293e-06)
(7.5072e-06 0 0 7.5072e-06 0 7.5072e-06)
(8.24232e-06 0 0 8.24232e-06 0 8.24232e-06)
(8.90314e-06 0 0 8.90314e-06 0 8.90314e-06)
(9.45867e-06 0 0 9.45867e-06 0 9.45867e-06)
(9.88094e-06 0 0 9.88094e-06 0 9.88094e-06)
(1.01473e-05 0 0 1.01473e-05 0 1.01473e-05)
(1.02425e-05 0 0 1.02425e-05 0 1.02425e-05)
(1.01601e-05 0 0 1.01601e-05 0 1.01601e-05)
(9.90325e-06 0 0 9.90325e-06 0 9.90325e-06)
(9.48463e-06 0 0 9.48463e-06 0 9.48463e-06)
(8.92512e-06 0 0 8.92512e-06 0 8.92512e-06)
(8.25217e-06 0 0 8.25217e-06 0 8.25217e-06)
(7.49747e-06 0 0 7.49747e-06 0 7.49747e-06)
(6.69435e-06 0 0 6.69435e-06 0 6.69435e-06)
(5.87525e-06 0 0 5.87525e-06 0 5.87525e-06)
(5.06961e-06 0 0 5.06961e-06 0 5.06961e-06)
(4.30211e-06 0 0 4.30211e-06 0 4.30211e-06)
(3.59177e-06 0 0 3.59177e-06 0 3.59177e-06)
(2.95151e-06 0 0 2.95151e-06 0 2.95151e-06)
(2.38841e-06 0 0 2.38841e-06 0 2.38841e-06)
(1.90438e-06 0 0 1.90438e-06 0 1.90438e-06)
(1.49716e-06 0 0 1.49716e-06 0 1.49716e-06)
(1.16137e-06 0 0 1.16137e-06 0 1.16137e-06)
(8.89637e-07 0 0 8.89637e-07 0 8.89637e-07)
(6.73579e-07 0 0 6.73579e-07 0 6.73579e-07)
(5.0457e-07 0 0 5.0457e-07 0 5.0457e-07)
(3.74343e-07 0 0 3.74343e-07 0 3.74343e-07)
(2.75374e-07 0 0 2.75374e-07 0 2.75374e-07)
(2.01097e-07 0 0 2.01097e-07 0 2.01097e-07)
(1.45971e-07 0 0 1.45971e-07 0 1.45971e-07)
(1.0546e-07 0 0 1.0546e-07 0 1.0546e-07)
(7.59384e-08 0 0 7.59384e-08 0 7.59384e-08)
(5.45774e-08 0 0 5.45774e-08 0 5.45774e-08)
(3.92079e-08 0 0 3.92079e-08 0 3.92079e-08)
(2.81959e-08 0 0 2.81959e-08 0 2.81959e-08)
(2.0328e-08 0 0 2.0328e-08 0 2.0328e-08)
(1.47144e-08 0 0 1.47144e-08 0 1.47144e-08)
(1.07095e-08 0 0 1.07095e-08 0 1.07095e-08)
(7.84856e-09 0 0 7.84856e-09 0 7.84856e-09)
(5.7997e-09 0 0 5.7997e-09 0 5.7997e-09)
(4.32699e-09 0 0 4.32699e-09 0 4.32699e-09)
(3.26336e-09 0 0 3.26336e-09 0 3.26336e-09)
(2.4908e-09 0 0 2.4908e-09 0 2.4908e-09)
(1.92599e-09 0 0 1.92599e-09 0 1.92599e-09)
(1.51009e-09 0 0 1.51009e-09 0 1.51009e-09)
(1.20151e-09 0 0 1.20151e-09 0 1.20151e-09)
(9.70742e-10 0 0 9.70742e-10 0 9.70742e-10)
(7.9679e-10 0 0 7.9679e-10 0 7.9679e-10)
(6.64653e-10 0 0 6.64653e-10 0 6.64653e-10)
(5.63556e-10 0 0 5.63556e-10 0 5.63556e-10)
(4.85718e-10 0 0 4.85718e-10 0 4.85718e-10)
(4.25483e-10 0 0 4.25483e-10 0 4.25483e-10)
(3.78718e-10 0 0 3.78718e-10 0 3.78718e-10)
(3.42381e-10 0 0 3.42381e-10 0 3.42381e-10)
(3.14218e-10 0 0 3.14218e-10 0 3.14218e-10)
(2.92548e-10 0 0 2.92548e-10 0 2.92548e-10)
(2.76112e-10 0 0 2.76112e-10 0 2.76112e-10)
(2.63956e-10 0 0 2.63956e-10 0 2.63956e-10)
(2.55356e-10 0 0 2.55356e-10 0 2.55356e-10)
(2.49757e-10 0 0 2.49757e-10 0 2.49757e-10)
(2.46729e-10 0 0 2.46729e-10 0 2.46729e-10)
(2.45939e-10 0 0 2.45939e-10 0 2.45939e-10)
(2.47125e-10 0 0 2.47125e-10 0 2.47125e-10)
(2.50078e-10 0 0 2.50078e-10 0 2.50078e-10)
(2.54632e-10 0 0 2.54632e-10 0 2.54632e-10)
(2.60655e-10 0 0 2.60655e-10 0 2.60655e-10)
(2.68043e-10 0 0 2.68043e-10 0 2.68043e-10)
(2.76714e-10 0 0 2.76714e-10 0 2.76714e-10)
(2.86615e-10 0 0 2.86615e-10 0 2.86615e-10)
(2.97714e-10 0 0 2.97714e-10 0 2.97714e-10)
(3.10007e-10 0 0 3.10007e-10 0 3.10007e-10)
(3.23521e-10 0 0 3.23521e-10 0 3.23521e-10)
(3.38316e-10 0 0 3.38316e-10 0 3.38316e-10)
(3.54491e-10 0 0 3.54491e-10 0 3.54491e-10)
(3.72189e-10 0 0 3.72189e-10 0 3.72189e-10)
(3.91603e-10 0 0 3.91603e-10 0 3.91603e-10)
(4.12978e-10 0 0 4.12978e-10 0 4.12978e-10)
(4.36621e-10 0 0 4.36621e-10 0 4.36621e-10)
(4.62907e-10 0 0 4.62907e-10 0 4.62907e-10)
(4.92279e-10 0 0 4.92279e-10 0 4.92279e-10)
(5.25264e-10 0 0 5.25264e-10 0 5.25264e-10)
(5.62474e-10 0 0 5.62474e-10 0 5.62474e-10)
(6.04611e-10 0 0 6.04611e-10 0 6.04611e-10)
(6.52477e-10 0 0 6.52477e-10 0 6.52477e-10)
(7.06975e-10 0 0 7.06975e-10 0 7.06975e-10)
(7.69106e-10 0 0 7.69106e-10 0 7.69106e-10)
(8.39968e-10 0 0 8.39968e-10 0 8.39968e-10)
(9.20733e-10 0 0 9.20733e-10 0 9.20733e-10)
(1.01262e-09 0 0 1.01262e-09 0 1.01262e-09)
(1.11685e-09 0 0 1.11685e-09 0 1.11685e-09)
(1.23456e-09 0 0 1.23456e-09 0 1.23456e-09)
(1.36674e-09 0 0 1.36674e-09 0 1.36674e-09)
(1.51407e-09 0 0 1.51407e-09 0 1.51407e-09)
(1.67675e-09 0 0 1.67675e-09 0 1.67675e-09)
(1.85435e-09 0 0 1.85435e-09 0 1.85435e-09)
(2.04556e-09 0 0 2.04556e-09 0 2.04556e-09)
(2.24802e-09 0 0 2.24802e-09 0 2.24802e-09)
(2.4581e-09 0 0 2.4581e-09 0 2.4581e-09)
(2.67079e-09 0 0 2.67079e-09 0 2.67079e-09)
(2.87971e-09 0 0 2.87971e-09 0 2.87971e-09)
(3.07723e-09 0 0 3.07723e-09 0 3.07723e-09)
(3.25482e-09 0 0 3.25482e-09 0 3.25482e-09)
(3.40349e-09 0 0 3.40349e-09 0 3.40349e-09)
(3.51454e-09 0 0 3.51454e-09 0 3.51454e-09)
(3.58032e-09 0 0 3.58032e-09 0 3.58032e-09)
(3.59501e-09 0 0 3.59501e-09 0 3.59501e-09)
(3.55539e-09 0 0 3.55539e-09 0 3.55539e-09)
(3.46125e-09 0 0 3.46125e-09 0 3.46125e-09)
(3.31564e-09 0 0 3.31564e-09 0 3.31564e-09)
(3.12464e-09 0 0 3.12464e-09 0 3.12464e-09)
(2.89683e-09 0 0 2.89683e-09 0 2.89683e-09)
(2.34804e-09 0 0 2.34804e-09 0 2.34804e-09)
(2.12168e-09 0 0 2.12168e-09 0 2.12168e-09)
(1.88812e-09 0 0 1.88812e-09 0 1.88812e-09)
(1.6558e-09 0 0 1.6558e-09 0 1.6558e-09)
(1.43199e-09 0 0 1.43199e-09 0 1.43199e-09)
(1.22245e-09 0 0 1.22245e-09 0 1.22245e-09)
(1.03123e-09 0 0 1.03123e-09 0 1.03123e-09)
(8.60697e-10 0 0 8.60697e-10 0 8.60697e-10)
(7.11717e-10 0 0 7.11717e-10 0 7.11717e-10)
(5.83937e-10 0 0 5.83937e-10 0 5.83937e-10)
(4.76106e-10 0 0 4.76106e-10 0 4.76106e-10)
(3.8639e-10 0 0 3.8639e-10 0 3.8639e-10)
(3.12649e-10 0 0 3.12649e-10 0 3.12649e-10)
(2.52657e-10 0 0 2.52657e-10 0 2.52657e-10)
(2.04258e-10 0 0 2.04258e-10 0 2.04258e-10)
(1.65473e-10 0 0 1.65473e-10 0 1.65473e-10)
(1.34548e-10 0 0 1.34548e-10 0 1.34548e-10)
(1.09978e-10 0 0 1.09978e-10 0 1.09978e-10)
(9.05036e-11 0 0 9.05036e-11 0 9.05036e-11)
(7.50861e-11 0 0 7.50861e-11 0 7.50861e-11)
(6.28855e-11 0 0 6.28855e-11 0 6.28855e-11)
(5.32296e-11 0 0 5.32296e-11 0 5.32296e-11)
(4.5586e-11 0 0 4.5586e-11 0 4.5586e-11)
(3.95363e-11 0 0 3.95363e-11 0 3.95363e-11)
(3.4754e-11 0 0 3.4754e-11 0 3.4754e-11)
(3.09857e-11 0 0 3.09857e-11 0 3.09857e-11)
(2.8036e-11 0 0 2.8036e-11 0 2.8036e-11)
(2.57555e-11 0 0 2.57555e-11 0 2.57555e-11)
(2.40312e-11 0 0 2.40312e-11 0 2.40312e-11)
(2.27793e-11 0 0 2.27793e-11 0 2.27793e-11)
(2.19395e-11 0 0 2.19395e-11 0 2.19395e-11)
(2.14717e-11 0 0 2.14717e-11 0 2.14717e-11)
(2.13525e-11 0 0 2.13525e-11 0 2.13525e-11)
(2.15744e-11 0 0 2.15744e-11 0 2.15744e-11)
(2.21447e-11 0 0 2.21447e-11 0 2.21447e-11)
(2.30866e-11 0 0 2.30866e-11 0 2.30866e-11)
(2.444e-11 0 0 2.444e-11 0 2.444e-11)
(2.62647e-11 0 0 2.62647e-11 0 2.62647e-11)
(2.86444e-11 0 0 2.86444e-11 0 2.86444e-11)
(3.16924e-11 0 0 3.16924e-11 0 3.16924e-11)
(3.55604e-11 0 0 3.55604e-11 0 3.55604e-11)
(4.04493e-11 0 0 4.04493e-11 0 4.04493e-11)
(4.66251e-11 0 0 4.66251e-11 0 4.66251e-11)
(5.444e-11 0 0 5.444e-11 0 5.444e-11)
(6.43614e-11 0 0 6.43614e-11 0 6.43614e-11)
(7.70118e-11 0 0 7.70118e-11 0 7.70118e-11)
(9.32229e-11 0 0 9.32229e-11 0 9.32229e-11)
(1.1411e-10 0 0 1.1411e-10 0 1.1411e-10)
(1.41175e-10 0 0 1.41175e-10 0 1.41175e-10)
(1.76447e-10 0 0 1.76447e-10 0 1.76447e-10)
(2.22676e-10 0 0 2.22676e-10 0 2.22676e-10)
(2.83601e-10 0 0 2.83601e-10 0 2.83601e-10)
(3.64317e-10 0 0 3.64317e-10 0 3.64317e-10)
(4.71786e-10 0 0 4.71786e-10 0 4.71786e-10)
(6.15526e-10 0 0 6.15526e-10 0 6.15526e-10)
(8.0857e-10 0 0 8.0857e-10 0 8.0857e-10)
(1.06877e-09 0 0 1.06877e-09 0 1.06877e-09)
(1.42056e-09 0 0 1.42056e-09 0 1.42056e-09)
(1.89736e-09 0 0 1.89736e-09 0 1.89736e-09)
(2.54479e-09 0 0 2.54479e-09 0 2.54479e-09)
(3.42497e-09 0 0 3.42497e-09 0 3.42497e-09)
(4.62218e-09 0 0 4.62218e-09 0 4.62218e-09)
(6.25031e-09 0 0 6.25031e-09 0 6.25031e-09)
(8.46244e-09 0 0 8.46244e-09 0 8.46244e-09)
(1.14631e-08 0 0 1.14631e-08 0 1.14631e-08)
(1.55235e-08 0 0 1.55235e-08 0 1.55235e-08)
(2.10006e-08 0 0 2.10006e-08 0 2.10006e-08)
(2.83598e-08 0 0 2.83598e-08 0 2.83598e-08)
(3.82016e-08 0 0 3.82016e-08 0 3.82016e-08)
(5.12918e-08 0 0 5.12918e-08 0 5.12918e-08)
(6.85948e-08 0 0 6.85948e-08 0 6.85948e-08)