/*--------------------------------*- C++ -*----------------------------------*\
  =========                 |
  \\      /  F ield         | OpenFOAM: The Open Source CFD Toolbox
   \\    /   O peration     | Website:  https://openfoam.org
    \\  /    A nd           | Version:  8
     \\/     M anipulation  |
\*---------------------------------------------------------------------------*/
FoamFile
{
    version     2.0;
    format      ascii;
    class       volScalarField;
    location    "1";
    object      p;
}
// * * * * * * * * * * * * * * * * * * * * * * * * * * * * * * * * * * * * * //

dimensions      [1 -1 -2 0 0 0 0];

internalField   nonuniform List<scalar> 
20000
(
9978.23
9978.06
9977.99
9977.96
9977.91
9977.76
9977.46
9977.04
9976.23
9974.29
9970.35
9964.42
9957.9
9952.78
9950.16
9949.22
9948.91
9948.8
9948.76
9948.74
9948.73
9948.7
9948.65
9948.59
9948.55
9948.53
9948.51
9948.5
9948.48
9948.47
9948.43
9948.31
9947.7
9945.32
9940.39
9935.53
9933.24
9932.66
9932.54
9932.51
9932.5
9932.49
9932.48
9932.47
9932.46
9932.45
9932.44
9932.44
9932.43
9932.43
9932.42
9932.42
9932.41
9932.41
9932.41
9932.4
9932.39
9932.37
9932.36
9932.34
9932.31
9932.27
9932.22
9932.19
9932.18
9932.16
9932.15
9932.15
9932.14
9932.14
9932.14
9932.14
9932.11
9931.79
9930.23
9928.11
9927.18
9927.1
9927.09
9927.09
9927.09
9927.09
9927.09
9927.03
9926.85
9926.4
9925.65
9924.99
9924.77
9924.74
9924.74
9924.74
9924.74
9924.74
9924.73
9924.72
9924.71
9924.69
9924.68
9924.65
9924.6
9924.54
9924.49
9924.45
9924.42
9924.4
9924.38
9924.37
9924.36
9924.36
9924.37
9924.4
9924.46
9924.54
9924.63
9924.76
9924.99
9925.3
9925.58
9925.77
9925.92
9926.1
9926.31
9926.45
9926.49
9926.5
9926.51
9926.61
9927.07
9927.69
9927.96
9928.01
9928.02
9928.04
9928.05
9928.06
9928.06
9928.06
9928.06
9928.06
9928.07
9928.08
9928.18
9928.43
9928.71
9928.92
9929.16
9929.58
9930.32
9931.24
9931.92
9932.23
9932.34
9932.41
9932.5
9932.64
9932.79
9932.87
9932.9
9932.92
9932.96
9933.08
9933.3
9933.5
9933.6
9933.64
9933.66
9933.67
9933.7
9933.79
9934.26
9936
9938.85
9941.09
9942.13
9942.52
9942.72
9942.92
9943.22
9943.61
9943.9
9944.01
9944.04
9944.06
9944.08
9944.12
9944.17
9944.24
9944.34
9944.65
9945.51
9948.36
9957.49
9972.62
9985.73
9991.3
9992.61
9993.03
9993.39
9994.01
9880.55
9880.14
9879.98
9879.92
9879.82
9879.55
9879.15
9878.75
9878.26
9877.26
9875.01
9871.14
9865.89
9860.07
9855.01
9851.98
9850.97
9850.78
9850.75
9850.74
9850.73
9850.7
9850.64
9850.58
9850.55
9850.53
9850.51
9850.5
9850.48
9850.47
9850.45
9850.34
9849.63
9846.63
9841.54
9837.44
9835.56
9834.94
9834.73
9834.63
9834.57
9834.53
9834.52
9834.51
9834.51
9834.49
9834.47
9834.45
9834.44
9834.43
9834.42
9834.42
9834.42
9834.41
9834.41
9834.4
9834.38
9834.37
9834.34
9834.32
9834.29
9834.26
9834.23
9834.2
9834.18
9834.16
9834.15
9834.14
9834.14
9834.14
9834.14
9834.13
9834.09
9833.82
9832.48
9830.38
9829.25
9829.11
9829.1
9829.1
9829.09
9829.08
9829.01
9828.83
9828.51
9827.99
9827.31
9826.85
9826.75
9826.74
9826.74
9826.74
9826.74
9826.74
9826.73
9826.72
9826.71
9826.7
9826.69
9826.66
9826.61
9826.54
9826.49
9826.46
9826.43
9826.4
9826.38
9826.36
9826.36
9826.36
9826.37
9826.39
9826.43
9826.5
9826.59
9826.71
9826.93
9827.24
9827.54
9827.74
9827.88
9828.02
9828.21
9828.38
9828.47
9828.5
9828.55
9828.79
9829.39
9829.9
9830.01
9830.02
9830.02
9830.03
9830.05
9830.06
9830.06
9830.06
9830.06
9830.07
9830.07
9830.09
9830.13
9830.27
9830.44
9830.56
9830.68
9830.91
9831.48
9832.55
9833.61
9834.14
9834.32
9834.4
9834.49
9834.64
9834.79
9834.87
9834.91
9834.93
9835
9835.17
9835.38
9835.51
9835.58
9835.62
9835.65
9835.67
9835.71
9835.81
9836.12
9837.17
9839.28
9841.72
9843.71
9844.52
9844.76
9844.94
9845.19
9845.54
9845.85
9846.01
9846.05
9846.07
9846.09
9846.14
9846.22
9846.34
9846.55
9847.04
9848.16
9850.52
9856.08
9867.47
9882.6
9891.92
9894.3
9894.8
9894.94
9894.82
9784.93
9782.62
9781.71
9781.46
9781.29
9781.01
9780.68
9780.39
9780.1
9779.65
9778.76
9776.99
9773.76
9768.44
9761.36
9755.52
9753.18
9752.79
9752.75
9752.74
9752.73
9752.7
9752.64
9752.58
9752.54
9752.53
9752.51
9752.49
9752.48
9752.47
9752.44
9752.27
9750.91
9746.9
9742.17
9739.41
9738.14
9737.54
9737.25
9737.08
9736.98
9736.93
9736.95
9737.01
9737.07
9737.08
9737.05
9736.96
9736.83
9736.69
9736.61
9736.58
9736.59
9736.59
9736.54
9736.46
9736.4
9736.35
9736.31
9736.28
9736.27
9736.26
9736.23
9736.2
9736.17
9736.15
9736.14
9736.14
9736.14
9736.13
9736.11
9736.08
9736
9735.73
9734.54
9732.57
9731.37
9731.15
9731.12
9731.11
9731.09
9731.04
9730.86
9730.58
9730.23
9729.76
9729.21
9728.84
9728.75
9728.74
9728.74
9728.74
9728.74
9728.73
9728.73
9728.72
9728.72
9728.71
9728.7
9728.68
9728.62
9728.55
9728.49
9728.46
9728.43
9728.4
9728.37
9728.35
9728.34
9728.35
9728.36
9728.38
9728.41
9728.47
9728.56
9728.7
9728.91
9729.2
9729.48
9729.67
9729.73
9729.7
9729.66
9729.74
9729.95
9730.18
9730.43
9730.88
9731.51
9731.92
9732.01
9732.02
9732.02
9732.03
9732.04
9732.05
9732.06
9732.06
9732.06
9732.07
9732.08
9732.1
9732.13
9732.19
9732.24
9732.28
9732.32
9732.4
9732.74
9733.77
9735.13
9735.96
9736.27
9736.44
9736.59
9736.74
9736.89
9737
9737.09
9737.18
9737.27
9737.39
9737.49
9737.53
9737.57
9737.6
9737.63
9737.66
9737.72
9737.84
9738.15
9738.8
9739.8
9741.35
9743.86
9745.7
9746.53
9746.94
9747.29
9747.68
9748.06
9748.33
9748.46
9748.57
9748.72
9748.93
9749.06
9749.11
9749.29
9749.88
9751.1
9753.15
9756.48
9762.73
9774.73
9787.27
9793.58
9795.32
9795.44
9794.78
9686.73
9683.82
9682.89
9682.69
9682.67
9682.59
9682.41
9682.21
9682.01
9681.73
9681.23
9680.12
9677.67
9673.05
9666.02
9659.03
9655.51
9654.81
9654.74
9654.73
9654.73
9654.71
9654.66
9654.59
9654.54
9654.52
9654.5
9654.49
9654.48
9654.46
9654.42
9654.21
9652.52
9648.18
9643.72
9641.44
9640.46
9639.99
9639.76
9639.67
9639.68
9639.76
9639.83
9639.86
9639.83
9639.79
9639.75
9639.68
9639.56
9639.42
9639.32
9639.26
9639.23
9639.17
9639
9638.79
9638.59
9638.41
9638.31
9638.28
9638.27
9638.25
9638.21
9638.17
9638.15
9638.14
9638.14
9638.13
9638.09
9638.02
9637.95
9637.9
9637.82
9637.54
9636.35
9634.49
9633.41
9633.21
9633.17
9633.15
9633.11
9632.99
9632.73
9632.4
9632.05
9631.67
9631.27
9630.92
9630.77
9630.74
9630.74
9630.74
9630.74
9630.73
9630.72
9630.72
9630.72
9630.72
9630.71
9630.7
9630.65
9630.57
9630.49
9630.44
9630.4
9630.37
9630.34
9630.33
9630.32
9630.32
9630.32
9630.33
9630.35
9630.39
9630.46
9630.58
9630.78
9631.03
9631.21
9631.19
9630.97
9630.72
9630.55
9630.54
9630.69
9630.94
9631.28
9631.83
9632.63
9633.37
9633.74
9633.84
9633.79
9633.66
9633.58
9633.73
9633.96
9634.05
9634.07
9634.08
9634.09
9634.11
9634.15
9634.2
9634.23
9634.26
9634.28
9634.35
9634.67
9635.71
9637.11
9637.99
9638.38
9638.65
9638.86
9639
9639.11
9639.23
9639.36
9639.45
9639.48
9639.49
9639.51
9639.53
9639.56
9639.58
9639.6
9639.63
9639.68
9639.82
9640.19
9640.79
9641.39
9642.06
9643.38
9644.92
9646.51
9648.38
9649.81
9650.51
9650.89
9651.13
9651.29
9651.5
9651.88
9652.37
9652.64
9652.62
9652.55
9652.85
9653.92
9655.81
9658.55
9662.64
9669.26
9677.73
9685.22
9689.88
9692.17
9693
9585.09
9584.41
9584.27
9584.25
9584.29
9584.35
9584.3
9584.15
9583.96
9583.69
9583.2
9582.12
9580.12
9577.2
9572.25
9564.79
9558.72
9556.94
9556.75
9556.73
9556.73
9556.71
9556.66
9556.57
9556.5
9556.48
9556.48
9556.47
9556.46
9556.43
9556.38
9556.22
9555.16
9551.61
9546.82
9543.86
9542.72
9542.32
9542.21
9542.23
9542.32
9542.41
9542.41
9542.28
9542.09
9541.95
9541.89
9541.87
9541.86
9541.86
9541.85
9541.82
9541.76
9541.64
9541.41
9541.15
9540.88
9540.59
9540.37
9540.29
9540.25
9540.22
9540.17
9540.15
9540.15
9540.14
9540.13
9540.1
9539.99
9539.84
9539.74
9539.7
9539.63
9539.35
9538.26
9536.54
9535.49
9535.28
9535.25
9535.21
9535.15
9534.96
9534.62
9534.27
9533.99
9533.74
9533.47
9533.16
9532.91
9532.78
9532.75
9532.74
9532.73
9532.73
9532.72
9532.72
9532.72
9532.72
9532.72
9532.7
9532.66
9532.56
9532.44
9532.37
9532.35
9532.33
9532.32
9532.31
9532.3
9532.3
9532.3
9532.3
9532.3
9532.31
9532.34
9532.41
9532.51
9532.57
9532.53
9532.35
9532.11
9531.96
9531.92
9531.92
9531.92
9531.97
9532.1
9532.38
9532.83
9533.39
9533.8
9534
9534.06
9534.09
9534.29
9534.86
9535.59
9535.97
9536.06
9536.08
9536.1
9536.12
9536.16
9536.2
9536.23
9536.25
9536.27
9536.36
9536.82
9538.04
9539.48
9540.37
9540.78
9541.02
9541.13
9541.18
9541.22
9541.31
9541.42
9541.48
9541.5
9541.5
9541.51
9541.51
9541.53
9541.55
9541.58
9541.6
9541.64
9541.75
9542.01
9542.36
9542.73
9543.04
9543.44
9544.06
9545.85
9549.26
9552.18
9553.28
9553.57
9553.67
9553.79
9554.06
9554.6
9555.23
9555.61
9555.71
9555.64
9555.78
9556.75
9558.69
9561.22
9564.12
9567.49
9571.87
9577.94
9584.19
9588.81
9591.45
9486.43
9486.26
9486.21
9486.16
9486.03
9485.76
9485.5
9485.32
9485.2
9484.88
9484.13
9483.09
9482.07
9481.24
9479.46
9473.96
9465.44
9460.3
9458.97
9458.76
9458.71
9458.66
9458.56
9458.46
9458.39
9458.37
9458.37
9458.38
9458.38
9458.36
9458.32
9458.16
9457.4
9454.65
9450
9446.4
9444.99
9444.63
9444.58
9444.59
9444.6
9444.58
9444.53
9444.4
9444.17
9443.98
9443.89
9443.87
9443.86
9443.86
9443.86
9443.86
9443.85
9443.77
9443.56
9443.3
9443.08
9442.82
9442.53
9442.31
9442.19
9442.13
9442.11
9442.11
9442.12
9442.12
9442.08
9441.99
9441.84
9441.69
9441.57
9441.45
9441.17
9440.54
9439.43
9438.22
9437.56
9437.37
9437.3
9437.24
9437.13
9436.88
9436.55
9436.28
9436.1
9435.92
9435.68
9435.4
9435.12
9434.91
9434.8
9434.75
9434.74
9434.73
9434.73
9434.72
9434.72
9434.72
9434.72
9434.7
9434.62
9434.48
9434.36
9434.32
9434.31
9434.31
9434.31
9434.3
9434.3
9434.3
9434.29
9434.29
9434.29
9434.29
9434.3
9434.32
9434.28
9434.15
9434.02
9433.94
9433.91
9433.9
9433.9
9433.89
9433.89
9433.9
9433.91
9433.95
9434.01
9434.08
9434.16
9434.26
9434.42
9434.66
9435.1
9435.83
9436.78
9437.52
9437.89
9438.02
9438.07
9438.11
9438.16
9438.19
9438.21
9438.23
9438.26
9438.44
9439.16
9440.66
9442.14
9442.88
9443.13
9443.2
9443.21
9443.22
9443.22
9443.27
9443.37
9443.46
9443.5
9443.5
9443.51
9443.51
9443.51
9443.52
9443.54
9443.56
9443.61
9443.69
9443.81
9443.96
9444.14
9444.29
9444.44
9444.88
9446.63
9450.33
9453.9
9455.39
9455.7
9455.79
9455.92
9456.3
9456.98
9457.6
9457.89
9457.98
9458
9458.3
9459.59
9461.78
9463.73
9465.23
9466.94
9470.19
9476.29
9483.56
9489.12
9491.69
9388.4
9388.22
9388.14
9387.94
9387.43
9386.79
9386.36
9386.13
9385.94
9385.58
9385.04
9384.6
9384.41
9384.27
9383.76
9381.04
9373.44
9365.36
9361.66
9360.85
9360.68
9360.57
9360.46
9360.36
9360.29
9360.26
9360.25
9360.26
9360.27
9360.28
9360.25
9360.04
9358.92
9355.47
9350.81
9347.92
9346.96
9346.75
9346.7
9346.67
9346.65
9346.62
9346.58
9346.5
9346.32
9346.09
9345.92
9345.87
9345.86
9345.86
9345.86
9345.86
9345.86
9345.84
9345.68
9345.39
9345.09
9344.77
9344.4
9344.11
9343.97
9343.94
9343.93
9343.91
9343.89
9343.85
9343.76
9343.65
9343.52
9343.36
9343.16
9342.82
9342.24
9341.41
9340.59
9340.01
9339.67
9339.47
9339.34
9339.25
9339.08
9338.79
9338.49
9338.29
9338.17
9338.02
9337.79
9337.49
9337.22
9337.02
9336.89
9336.82
9336.79
9336.78
9336.77
9336.76
9336.74
9336.73
9336.72
9336.69
9336.57
9336.43
9336.34
9336.31
9336.31
9336.31
9336.3
9336.3
9336.3
9336.29
9336.29
9336.29
9336.29
9336.29
9336.28
9336.26
9336.16
9336.03
9335.94
9335.91
9335.9
9335.9
9335.89
9335.89
9335.89
9335.89
9335.9
9335.92
9335.97
9336.03
9336.1
9336.16
9336.24
9336.37
9336.68
9337.27
9338.08
9338.97
9339.62
9339.89
9340
9340.07
9340.12
9340.16
9340.18
9340.2
9340.23
9340.4
9341.22
9343
9344.57
9345.13
9345.21
9345.22
9345.22
9345.22
9345.22
9345.24
9345.32
9345.42
9345.48
9345.5
9345.51
9345.51
9345.51
9345.51
9345.51
9345.53
9345.57
9345.65
9345.75
9345.85
9345.94
9346.03
9346.17
9346.61
9348.16
9351.64
9355.39
9357.29
9357.85
9358.09
9358.43
9359.01
9359.67
9360.08
9360.23
9360.26
9360.3
9360.84
9362.51
9364.49
9365.64
9366.33
9367.1
9369.07
9374.28
9381.97
9388.47
9391.6
9290.32
9289.71
9289.28
9288.87
9288.39
9288.04
9287.86
9287.66
9287.33
9286.92
9286.66
9286.58
9286.55
9286.52
9286.36
9285.15
9279.66
9270.73
9264.76
9263.06
9262.69
9262.54
9262.42
9262.32
9262.25
9262.21
9262.2
9262.2
9262.2
9262.21
9262.17
9261.8
9259.94
9255.62
9251.28
9249.33
9248.86
9248.76
9248.73
9248.7
9248.67
9248.64
9248.61
9248.57
9248.49
9248.32
9248.06
9247.89
9247.86
9247.86
9247.86
9247.86
9247.86
9247.85
9247.68
9247.23
9246.71
9246.3
9245.99
9245.81
9245.75
9245.74
9245.73
9245.69
9245.63
9245.55
9245.43
9245.31
9245.19
9245.01
9244.73
9244.3
9243.71
9243.08
9242.55
9242.14
9241.82
9241.58
9241.39
9241.21
9241
9240.73
9240.46
9240.29
9240.18
9240.06
9239.88
9239.59
9239.26
9239.01
9238.88
9238.85
9238.84
9238.84
9238.83
9238.81
9238.79
9238.76
9238.73
9238.65
9238.52
9238.4
9238.33
9238.31
9238.31
9238.31
9238.3
9238.3
9238.3
9238.29
9238.29
9238.29
9238.28
9238.28
9238.27
9238.24
9238.16
9238.05
9237.95
9237.91
9237.9
9237.9
9237.89
9237.89
9237.89
9237.89
9237.88
9237.89
9237.93
9237.99
9238.06
9238.14
9238.22
9238.37
9238.69
9239.26
9240
9240.82
9241.43
9241.74
9241.91
9242.02
9242.08
9242.13
9242.16
9242.18
9242.2
9242.27
9242.77
9244.49
9246.38
9247.12
9247.21
9247.22
9247.22
9247.22
9247.23
9247.24
9247.3
9247.38
9247.46
9247.5
9247.51
9247.51
9247.51
9247.51
9247.51
9247.52
9247.55
9247.62
9247.71
9247.81
9247.9
9247.99
9248.13
9248.6
9250.3
9253.91
9257.61
9259.61
9260.36
9260.78
9261.28
9261.89
9262.34
9262.54
9262.6
9262.61
9262.66
9263.13
9264.42
9265.92
9267.09
9267.93
9268.75
9270.76
9275.54
9281.55
9286.53
9290.2
9191.26
9190.62
9190.22
9190.03
9189.96
9189.9
9189.8
9189.58
9189.2
9188.83
9188.64
9188.58
9188.56
9188.54
9188.45
9187.7
9184.07
9176.77
9169.92
9166.49
9165.14
9164.58
9164.35
9164.26
9164.21
9164.19
9164.19
9164.18
9164.17
9164.15
9164.08
9163.68
9161.74
9157.35
9153.05
9151.21
9150.83
9150.77
9150.74
9150.72
9150.69
9150.65
9150.61
9150.58
9150.56
9150.51
9150.35
9150.1
9149.93
9149.87
9149.86
9149.86
9149.86
9149.82
9149.51
9148.81
9148.18
9147.88
9147.76
9147.71
9147.68
9147.66
9147.64
9147.61
9147.55
9147.47
9147.36
9147.21
9147.05
9146.85
9146.58
9146.21
9145.8
9145.41
9145.03
9144.59
9144.08
9143.62
9143.27
9143.01
9142.83
9142.68
9142.52
9142.35
9142.21
9142.09
9141.94
9141.65
9141.23
9140.94
9140.86
9140.85
9140.84
9140.84
9140.84
9140.83
9140.81
9140.78
9140.71
9140.59
9140.46
9140.37
9140.33
9140.31
9140.31
9140.31
9140.3
9140.3
9140.3
9140.29
9140.29
9140.28
9140.28
9140.28
9140.27
9140.26
9140.2
9140.09
9139.99
9139.93
9139.9
9139.89
9139.89
9139.88
9139.87
9139.86
9139.83
9139.79
9139.78
9139.8
9139.84
9139.92
9140.11
9140.45
9140.99
9141.68
9142.36
9142.93
9143.33
9143.6
9143.82
9143.98
9144.08
9144.14
9144.16
9144.17
9144.18
9144.22
9144.52
9145.75
9147.56
9148.64
9148.97
9149.13
9149.2
9149.22
9149.23
9149.25
9149.31
9149.38
9149.45
9149.48
9149.5
9149.51
9149.51
9149.51
9149.52
9149.52
9149.54
9149.59
9149.67
9149.77
9149.89
9150.03
9150.3
9151.18
9153.62
9157.42
9160.52
9162.08
9162.77
9163.21
9163.69
9164.21
9164.55
9164.69
9164.73
9164.76
9164.84
9165.06
9165.63
9166.53
9167.65
9168.96
9170.88
9174.73
9179.87
9183.51
9185.83
9188.76
9092.16
9092.02
9091.97
9091.96
9091.94
9091.88
9091.72
9091.34
9090.92
9090.68
9090.59
9090.55
9090.52
9090.46
9090.26
9089.36
9086.14
9080.01
9073.63
9069.58
9067.51
9066.61
9066.32
9066.24
9066.21
9066.19
9066.18
9066.16
9066.12
9066.05
9065.92
9065.6
9064.38
9060.88
9056.27
9053.64
9052.97
9052.81
9052.76
9052.73
9052.7
9052.66
9052.61
9052.58
9052.57
9052.56
9052.52
9052.37
9052.11
9051.94
9051.89
9051.88
9051.86
9051.71
9051.19
9050.42
9049.93
9049.76
9049.71
9049.69
9049.68
9049.65
9049.6
9049.52
9049.39
9049.25
9049.1
9048.94
9048.76
9048.57
9048.36
9048.14
9047.97
9047.84
9047.66
9047.29
9046.55
9045.67
9045.07
9044.8
9044.7
9044.64
9044.59
9044.5
9044.35
9044.16
9043.95
9043.56
9043.1
9042.88
9042.85
9042.85
9042.85
9042.84
9042.84
9042.83
9042.8
9042.73
9042.65
9042.55
9042.45
9042.38
9042.34
9042.32
9042.31
9042.31
9042.31
9042.3
9042.3
9042.29
9042.28
9042.28
9042.28
9042.28
9042.27
9042.27
9042.23
9042.14
9042.03
9041.94
9041.88
9041.86
9041.85
9041.85
9041.83
9041.8
9041.73
9041.61
9041.51
9041.47
9041.49
9041.6
9041.86
9042.31
9042.97
9043.76
9044.48
9044.97
9045.25
9045.46
9045.7
9045.92
9046.07
9046.14
9046.17
9046.18
9046.19
9046.25
9046.61
9047.68
9049.09
9049.99
9050.43
9050.74
9050.91
9050.96
9051
9051.11
9051.27
9051.37
9051.43
9051.47
9051.49
9051.51
9051.51
9051.51
9051.51
9051.52
9051.54
9051.59
9051.7
9051.88
9052.1
9052.32
9052.69
9053.83
9056.5
9060.04
9062.66
9064.04
9064.75
9065.26
9065.82
9066.34
9066.63
9066.72
9066.75
9066.79
9066.89
9067.1
9067.37
9067.67
9068.23
9069.72
9073.31
9079.04
9083.65
9085.56
9086.61
9088.5
8993.93
8993.9
8993.88
8993.86
8993.77
8993.47
8992.96
8992.41
8992.02
8991.9
8991.96
8992
8991.92
8991.71
8991.26
8990.01
8986.36
8980.08
8974.45
8971.36
8969.64
8968.71
8968.37
8968.27
8968.22
8968.19
8968.16
8968.11
8968.02
8967.88
8967.67
8967.33
8966.62
8964.56
8960.63
8957.15
8955.64
8955.1
8954.9
8954.81
8954.74
8954.66
8954.6
8954.58
8954.57
8954.57
8954.55
8954.49
8954.29
8954.07
8953.97
8953.95
8953.92
8953.77
8953.24
8952.41
8951.88
8951.73
8951.7
8951.69
8951.68
8951.65
8951.55
8951.36
8951.14
8950.96
8950.82
8950.69
8950.57
8950.45
8950.32
8950.19
8950.05
8949.96
8949.86
8949.62
8948.85
8947.67
8946.93
8946.7
8946.64
8946.62
8946.61
8946.6
8946.53
8946.4
8946.13
8945.59
8945.07
8944.88
8944.85
8944.85
8944.85
8944.84
8944.83
8944.78
8944.71
8944.63
8944.57
8944.54
8944.48
8944.42
8944.37
8944.34
8944.33
8944.32
8944.31
8944.3
8944.29
8944.28
8944.28
8944.28
8944.28
8944.28
8944.27
8944.27
8944.25
8944.19
8944.08
8943.95
8943.84
8943.8
8943.79
8943.78
8943.76
8943.69
8943.53
8943.36
8943.27
8943.25
8943.29
8943.42
8943.67
8944.11
8944.82
8945.75
8946.54
8946.97
8947.17
8947.31
8947.48
8947.72
8947.97
8948.13
8948.18
8948.2
8948.23
8948.41
8948.94
8949.87
8950.88
8951.6
8952.01
8952.28
8952.4
8952.32
8952.26
8952.41
8952.77
8953.11
8953.3
8953.41
8953.47
8953.5
8953.51
8953.51
8953.51
8953.52
8953.56
8953.68
8953.93
8954.21
8954.45
8954.62
8954.81
8955.41
8957.35
8960.78
8963.87
8965.66
8966.6
8967.32
8968.01
8968.52
8968.7
8968.73
8968.74
8968.78
8968.91
8969.16
8969.41
8969.6
8969.87
8970.97
8974.98
8981.45
8986.01
8987.57
8988.24
8989.16
8895.88
8895.82
8895.73
8895.57
8895.29
8894.74
8894.05
8893.51
8893.02
8892.56
8892.35
8892.29
8892.13
8891.61
8890.58
8888.9
8885.76
8881.22
8877.3
8874.67
8872.53
8871.07
8870.49
8870.3
8870.23
8870.19
8870.14
8870.06
8869.94
8869.75
8869.48
8869.04
8868.29
8866.82
8864.06
8860.8
8858.69
8857.82
8857.47
8857.29
8857.1
8856.84
8856.65
8856.59
8856.58
8856.58
8856.57
8856.54
8856.44
8856.3
8856.2
8856.15
8856.09
8855.98
8855.63
8854.87
8854.09
8853.75
8853.69
8853.68
8853.65
8853.58
8853.41
8853.18
8852.98
8852.85
8852.75
8852.67
8852.59
8852.5
8852.42
8852.31
8852.16
8852.02
8851.83
8851.33
8850.25
8849.15
8848.72
8848.64
8848.62
8848.62
8848.61
8848.61
8848.6
8848.55
8848.37
8847.89
8847.3
8846.97
8846.87
8846.85
8846.85
8846.84
8846.8
8846.72
8846.64
8846.58
8846.55
8846.53
8846.5
8846.46
8846.42
8846.38
8846.35
8846.33
8846.31
8846.29
8846.29
8846.28
8846.28
8846.28
8846.28
8846.28
8846.27
8846.26
8846.24
8846.2
8846.12
8845.98
8845.79
8845.63
8845.52
8845.45
8845.4
8845.32
8845.21
8845.18
8845.19
8845.19
8845.21
8845.3
8845.56
8846.16
8847.15
8848.16
8848.75
8849
8849.11
8849.18
8849.25
8849.39
8849.66
8850.05
8850.35
8850.46
8850.58
8850.84
8851.26
8851.77
8852.41
8853.07
8853.57
8853.87
8853.89
8853.68
8853.51
8853.53
8853.82
8854.28
8854.76
8855.14
8855.39
8855.48
8855.51
8855.51
8855.52
8855.54
8855.6
8855.73
8856.01
8856.33
8856.55
8856.67
8856.79
8857.08
8858.18
8860.79
8863.85
8865.93
8867.17
8868.4
8869.72
8870.53
8870.71
8870.73
8870.74
8870.76
8870.88
8871.15
8871.44
8871.66
8871.91
8872.66
8875.54
8881.49
8887.06
8889.25
8889.9
8890.05
8797.77
8797.58
8797.33
8797.05
8796.8
8796.36
8795.68
8794.94
8794.06
8793.27
8792.85
8792.59
8792.16
8791.16
8789.62
8787.88
8785.95
8783.69
8781.37
8779.18
8776.93
8774.76
8773.27
8772.53
8772.29
8772.21
8772.15
8772.08
8771.95
8771.71
8771.32
8770.71
8769.76
8768.26
8766.1
8763.69
8761.84
8760.9
8760.51
8760.34
8760.11
8759.57
8758.98
8758.69
8758.62
8758.6
8758.6
8758.6
8758.56
8758.5
8758.43
8758.36
8758.26
8758.15
8757.92
8757.4
8756.61
8755.95
8755.64
8755.52
8755.44
8755.34
8755.22
8755.09
8754.96
8754.84
8754.75
8754.67
8754.6
8754.53
8754.46
8754.35
8754.15
8753.64
8752.79
8751.93
8751.19
8750.75
8750.64
8750.62
8750.62
8750.61
8750.61
8750.6
8750.59
8750.55
8750.42
8750.08
8749.59
8749.15
8748.95
8748.88
8748.86
8748.83
8748.78
8748.71
8748.64
8748.58
8748.55
8748.53
8748.5
8748.47
8748.44
8748.41
8748.38
8748.34
8748.31
8748.29
8748.28
8748.28
8748.28
8748.28
8748.28
8748.27
8748.27
8748.25
8748.22
8748.16
8748.02
8747.76
8747.4
8747.11
8746.95
8746.87
8746.84
8746.87
8746.99
8747.13
8747.18
8747.19
8747.19
8747.24
8747.51
8748.43
8749.71
8750.56
8750.9
8751.02
8751.08
8751.12
8751.16
8751.23
8751.46
8751.99
8752.59
8752.92
8753.1
8753.28
8753.48
8753.71
8754
8754.34
8754.69
8754.98
8755.11
8755.06
8754.99
8755.02
8755.2
8755.59
8756.18
8756.76
8757.17
8757.37
8757.46
8757.5
8757.53
8757.56
8757.61
8757.7
8757.92
8758.27
8758.54
8758.68
8758.81
8759.08
8759.79
8761.35
8763.53
8765.21
8766.23
8767.51
8769.59
8771.82
8772.62
8772.72
8772.74
8772.78
8772.93
8773.23
8773.55
8773.8
8774.05
8774.53
8776
8779.97
8785.7
8789.37
8790.63
8790.42
8699.3
8698.87
8698.46
8698.09
8697.88
8697.6
8696.9
8695.96
8695.05
8694.49
8694.3
8694.07
8693.47
8692.29
8690.83
8689.43
8687.95
8686.2
8684.33
8682.55
8680.66
8678.32
8676.13
8674.87
8674.41
8674.27
8674.21
8674.15
8674.04
8673.74
8673.14
8672.24
8671.03
8669.28
8667.38
8665.84
8664.73
8664.03
8663.65
8663.47
8663.21
8662.54
8661.57
8660.93
8660.72
8660.68
8660.69
8660.69
8660.64
8660.57
8660.51
8660.44
8660.35
8660.23
8659.99
8659.55
8658.88
8658.11
8657.55
8657.33
8657.25
8657.19
8657.13
8657.05
8656.95
8656.84
8656.76
8656.69
8656.63
8656.55
8656.45
8656.28
8655.84
8654.77
8653.47
8652.79
8652.64
8652.61
8652.6
8652.6
8652.6
8652.59
8652.58
8652.57
8652.54
8652.49
8652.35
8652.07
8651.63
8651.22
8650.99
8650.91
8650.88
8650.86
8650.8
8650.72
8650.64
8650.59
8650.55
8650.51
8650.48
8650.47
8650.46
8650.44
8650.41
8650.36
8650.32
8650.29
8650.28
8650.28
8650.28
8650.28
8650.28
8650.26
8650.21
8650.12
8649.97
8649.69
8649.34
8649.02
8648.75
8648.6
8648.54
8648.52
8648.53
8648.58
8648.72
8648.95
8649.12
8649.17
8649.18
8649.24
8649.59
8650.67
8651.96
8652.67
8652.92
8653.02
8653.08
8653.12
8653.17
8653.28
8653.56
8654.13
8654.77
8655.16
8655.33
8655.43
8655.55
8655.7
8655.85
8655.98
8656.09
8656.2
8656.31
8656.39
8656.46
8656.58
8656.82
8657.26
8657.91
8658.58
8659.04
8659.29
8659.4
8659.46
8659.5
8659.54
8659.59
8659.67
8659.84
8660.18
8660.52
8660.75
8660.95
8661.36
8662.12
8663
8664.17
8665.25
8665.92
8666.61
8668.06
8670.91
8673.26
8674.34
8674.71
8674.88
8675.1
8675.39
8675.66
8675.88
8676.1
8676.44
8677.37
8679.87
8683.81
8686.99
8688.61
8689.13
8600.53
8599.92
8599.19
8598.41
8597.9
8597.61
8597.28
8596.93
8596.61
8596.36
8596.23
8596.01
8595.4
8594.26
8592.95
8591.72
8590.3
8588.52
8586.51
8584.43
8582.14
8579.63
8577.79
8576.92
8576.53
8576.35
8576.26
8576.21
8576.13
8575.92
8575.27
8573.97
8572.12
8570
8568.3
8567.33
8566.79
8566.42
8566.16
8565.98
8565.78
8565.28
8564.25
8563.31
8562.93
8562.85
8562.85
8562.8
8562.7
8562.62
8562.56
8562.48
8562.34
8562.13
8561.86
8561.48
8560.83
8560.02
8559.44
8559.27
8559.24
8559.21
8559.16
8559.07
8558.95
8558.83
8558.76
8558.7
8558.64
8558.54
8558.39
8558.18
8557.66
8556.44
8555.18
8554.68
8554.6
8554.59
8554.59
8554.58
8554.56
8554.5
8554.38
8554.2
8554.01
8553.87
8553.77
8553.64
8553.42
8553.19
8553.05
8553.01
8553
8552.98
8552.94
8552.82
8552.67
8552.59
8552.54
8552.5
8552.48
8552.47
8552.47
8552.46
8552.44
8552.39
8552.33
8552.29
8552.28
8552.28
8552.28
8552.28
8552.25
8552.18
8552.05
8551.83
8551.47
8550.98
8550.62
8550.5
8550.47
8550.47
8550.46
8550.47
8550.47
8550.47
8550.49
8550.6
8550.75
8550.85
8550.92
8551.02
8551.38
8552.27
8553.48
8554.35
8554.73
8554.87
8554.95
8555.02
8555.13
8555.3
8555.65
8556.23
8556.8
8557.15
8557.32
8557.44
8557.57
8557.74
8557.88
8557.95
8557.98
8558
8558.03
8558.08
8558.16
8558.27
8558.46
8558.82
8559.49
8560.36
8560.99
8561.27
8561.38
8561.43
8561.46
8561.5
8561.55
8561.61
8561.73
8562.08
8562.78
8563.51
8563.98
8564.42
8564.92
8565.28
8565.71
8566.22
8566.65
8567.03
8567.76
8569.63
8572.49
8575.04
8576.44
8576.9
8577.12
8577.35
8577.6
8577.85
8578.13
8578.59
8579.7
8581.97
8584.5
8586.02
8586.96
8587.9
8501.82
8500.51
8499.32
8498.56
8498.17
8497.99
8497.93
8497.99
8498.02
8497.94
8497.76
8497.31
8496.52
8495.72
8495.11
8494.58
8493.66
8491.86
8489.12
8485.85
8482.88
8480.75
8479.62
8479.07
8478.72
8478.48
8478.34
8478.25
8478.18
8478.06
8477.63
8476.29
8473.75
8471.18
8469.68
8468.96
8468.6
8468.31
8468.1
8467.99
8467.93
8467.78
8467.24
8466.33
8465.64
8465.4
8465.33
8465.18
8464.97
8464.81
8464.66
8464.37
8464.05
8463.84
8463.7
8463.55
8463.19
8462.44
8461.64
8461.35
8461.31
8461.35
8461.52
8461.68
8461.65
8461.44
8461.15
8460.9
8460.67
8460.47
8460.32
8460.18
8459.87
8458.82
8457.4
8456.69
8456.6
8456.59
8456.59
8456.57
8456.51
8456.31
8455.96
8455.59
8455.33
8455.21
8455.18
8455.16
8455.15
8455.13
8455.11
8455.11
8455.11
8455.1
8455.09
8455.02
8454.84
8454.66
8454.55
8454.5
8454.48
8454.48
8454.48
8454.49
8454.48
8454.46
8454.39
8454.32
8454.29
8454.28
8454.27
8454.25
8454.18
8454.03
8453.79
8453.41
8452.96
8452.6
8452.47
8452.46
8452.46
8452.46
8452.46
8452.46
8452.46
8452.47
8452.47
8452.47
8452.49
8452.53
8452.58
8452.66
8452.81
8453.15
8453.81
8454.62
8455.39
8455.96
8456.3
8456.55
8456.8
8457.08
8457.49
8458
8458.45
8458.77
8459.04
8459.31
8459.57
8459.78
8459.91
8459.96
8459.98
8459.99
8460.01
8460.04
8460.1
8460.19
8460.31
8460.52
8461.05
8461.94
8462.75
8463.17
8463.34
8463.4
8463.44
8463.47
8463.49
8463.47
8463.48
8464.12
8465.46
8466.54
8466.99
8467.19
8467.33
8467.47
8467.65
8467.84
8468
8468.15
8468.44
8469.25
8470.98
8473.59
8476.08
8477.09
8476.99
8476.63
8476.52
8476.89
8478.1
8480.19
8482.61
8485.1
8486.97
8487.79
8488.2
8488.34
8402.72
8400.8
8400.01
8399.81
8399.76
8399.74
8399.71
8399.66
8399.6
8399.48
8399.12
8398.36
8397.63
8397.36
8397.3
8397.25
8396.97
8395.88
8392.85
8388.35
8384.75
8382.89
8382.03
8381.51
8381.14
8380.87
8380.66
8380.5
8380.37
8380.25
8379.96
8378.93
8376.33
8373.23
8371.45
8370.76
8370.41
8370.16
8370
8369.94
8369.92
8369.89
8369.79
8369.39
8368.84
8368.52
8368.39
8368.24
8368.02
8367.6
8366.86
8366.11
8365.74
8365.66
8365.64
8365.63
8365.58
8365.28
8364.62
8364.21
8364.11
8364.19
8364.4
8364.59
8364.62
8364.45
8364.1
8363.59
8363.01
8362.56
8362.33
8362.18
8361.87
8360.83
8359.26
8358.42
8358.37
8358.5
8358.53
8358.49
8358.34
8358.01
8357.59
8357.3
8357.18
8357.15
8357.15
8357.14
8357.14
8357.13
8357.12
8357.11
8357.11
8357.11
8357.11
8357.09
8356.97
8356.8
8356.64
8356.56
8356.53
8356.52
8356.51
8356.52
8356.53
8356.53
8356.49
8356.39
8356.31
8356.28
8356.25
8356.21
8356.11
8355.88
8355.41
8354.84
8354.49
8354.4
8354.42
8354.45
8354.46
8354.46
8354.46
8354.46
8354.46
8354.46
8354.47
8354.46
8354.46
8354.47
8354.5
8354.56
8354.63
8354.68
8354.76
8355.05
8355.8
8356.76
8357.47
8357.91
8358.28
8358.69
8359.16
8359.59
8359.9
8360.16
8360.48
8360.91
8361.38
8361.74
8361.91
8361.96
8361.97
8361.98
8362
8362.03
8362.07
8362.14
8362.22
8362.38
8362.79
8363.54
8364.38
8364.93
8365.19
8365.29
8365.29
8365.15
8364.85
8364.63
8364.81
8365.96
8367.64
8368.76
8369.17
8369.31
8369.41
8369.52
8369.65
8369.78
8369.88
8369.96
8370.07
8370.31
8370.68
8371.58
8373.5
8375.11
8375.29
8374.83
8374.58
8374.73
8375.64
8377.81
8381.45
8385.73
8388.49
8389.46
8389.59
8388.82
8303.55
8301.98
8301.77
8301.75
8301.74
8301.72
8301.69
8301.64
8301.55
8301.34
8300.78
8299.95
8299.44
8299.32
8299.31
8299.3
8299.28
8299.01
8297
8292.51
8287.97
8285.53
8284.56
8284
8283.61
8283.37
8283.32
8283.46
8283.58
8283.51
8283.14
8282.15
8279.88
8276.55
8273.9
8272.7
8272.27
8272.07
8271.97
8271.93
8271.91
8271.88
8271.81
8271.65
8271.42
8271.21
8271.09
8271.01
8270.89
8270.45
8269.31
8268.16
8267.7
8267.64
8267.64
8267.63
8267.62
8267.55
8267.32
8267.03
8266.88
8266.86
8266.87
8266.88
8266.87
8266.84
8266.7
8266.27
8265.54
8264.83
8264.38
8263.95
8263.13
8261.64
8260.24
8259.69
8259.68
8259.83
8259.99
8260.1
8260
8259.72
8259.42
8259.24
8259.17
8259.15
8259.15
8259.14
8259.14
8259.13
8259.12
8259.11
8259.11
8259.11
8259.11
8259.07
8258.97
8258.81
8258.69
8258.64
8258.61
8258.57
8258.55
8258.55
8258.55
8258.55
8258.54
8258.46
8258.35
8258.27
8258.22
8258.16
8258.04
8257.65
8256.91
8256.33
8256.2
8256.27
8256.35
8256.41
8256.44
8256.45
8256.46
8256.46
8256.45
8256.44
8256.44
8256.43
8256.43
8256.42
8256.46
8256.56
8256.65
8256.7
8256.74
8256.87
8257.3
8258.08
8258.89
8259.47
8259.96
8260.46
8260.92
8261.28
8261.57
8261.83
8262.09
8262.5
8263.08
8263.6
8263.86
8263.93
8263.94
8263.95
8263.95
8263.96
8263.98
8264.02
8264.09
8264.21
8264.48
8265.06
8265.86
8266.49
8266.79
8266.74
8266.35
8265.9
8265.53
8265.41
8265.76
8266.86
8268.55
8270.02
8270.85
8271.23
8271.41
8271.52
8271.62
8271.72
8271.82
8271.92
8272.03
8272.13
8272.01
8271.61
8272.21
8273.94
8275.28
8275.59
8275.6
8275.58
8275.61
8276.02
8277.83
8281.36
8285.02
8287.49
8288.27
8287.7
8204.26
8203.57
8203.53
8203.56
8203.57
8203.56
8203.52
8203.43
8203.24
8202.85
8202.17
8201.59
8201.37
8201.32
8201.31
8201.3
8201.29
8201.19
8200.34
8197.15
8192.03
8188.3
8187
8186.37
8185.97
8185.98
8186.74
8187.45
8187.77
8187.76
8187.38
8186.3
8184.02
8180.55
8177.14
8175.09
8174.3
8174.05
8173.95
8173.91
8173.87
8173.82
8173.73
8173.58
8173.41
8173.24
8173.13
8173.05
8172.93
8172.47
8171.23
8170.06
8169.67
8169.64
8169.63
8169.63
8169.63
8169.59
8169.41
8169.13
8168.95
8168.9
8168.89
8168.89
8168.88
8168.87
8168.78
8168.35
8167.49
8166.63
8166.06
8165.46
8164.33
8162.81
8161.74
8161.33
8161.22
8161.21
8161.3
8161.43
8161.46
8161.35
8161.23
8161.15
8161.12
8161.12
8161.13
8161.13
8161.13
8161.13
8161.12
8161.11
8161.11
8161.1
8161.09
8161.02
8160.87
8160.74
8160.68
8160.67
8160.66
8160.64
8160.61
8160.58
8160.56
8160.55
8160.54
8160.47
8160.14
8159.7
8159.51
8159.42
8159.17
8158.67
8158.14
8157.92
8157.97