/*--------------------------------*- C++ -*----------------------------------*\
  =========                 |
  \\      /  F ield         | OpenFOAM: The Open Source CFD Toolbox
   \\    /   O peration     | Website:  https://openfoam.org
    \\  /    A nd           | Version:  8
     \\/     M anipulation  |
\*---------------------------------------------------------------------------*/
FoamFile
{
    version     2.0;
    format      ascii;
    class       volScalarField;
    location    "1";
    object      p_rgh;
}
// * * * * * * * * * * * * * * * * * * * * * * * * * * * * * * * * * * * * * //

dimensions      [1 -1 -2 0 0 0 0];

internalField   nonuniform List<scalar> 
20000
(
10027.2
10027.1
10027
10027
10026.9
10026.8
10026.5
10026
10025.2
10023.3
10019.3
10013.4
10006.9
10001.8
9999.16
9998.22
9997.91
9997.8
9997.76
9997.74
9997.73
9997.7
9997.65
9997.59
9997.55
9997.53
9997.51
9997.5
9997.48
9997.47
9997.43
9997.31
9996.7
9994.32
9989.39
9984.53
9982.24
9981.66
9981.54
9981.51
9981.5
9981.49
9981.48
9981.47
9981.46
9981.45
9981.44
9981.44
9981.43
9981.43
9981.42
9981.42
9981.41
9981.41
9981.41
9981.4
9981.39
9981.37
9981.36
9981.34
9981.31
9981.27
9981.22
9981.19
9981.18
9981.16
9981.15
9981.15
9981.14
9981.14
9981.14
9981.14
9981.11
9980.79
9979.23
9977.11
9976.18
9976.1
9976.09
9976.09
9976.09
9976.09
9976.09
9976.03
9975.85
9975.4
9974.65
9973.99
9973.77
9973.74
9973.74
9973.74
9973.74
9973.74
9973.73
9973.72
9973.71
9973.69
9973.68
9973.65
9973.6
9973.54
9973.49
9973.45
9973.42
9973.4
9973.38
9973.37
9973.36
9973.36
9973.37
9973.4
9973.46
9973.54
9973.63
9973.76
9973.99
9974.3
9974.58
9974.77
9974.92
9975.1
9975.31
9975.45
9975.49
9975.5
9975.51
9975.61
9976.07
9976.69
9976.96
9977.01
9977.02
9977.04
9977.05
9977.06
9977.06
9977.06
9977.06
9977.06
9977.07
9977.08
9977.18
9977.43
9977.71
9977.92
9978.16
9978.58
9979.32
9980.24
9980.92
9981.23
9981.34
9981.41
9981.5
9981.64
9981.79
9981.87
9981.9
9981.92
9981.96
9982.08
9982.3
9982.5
9982.6
9982.64
9982.66
9982.67
9982.7
9982.79
9983.26
9985
9987.85
9990.09
9991.13
9991.52
9991.72
9991.92
9992.22
9992.61
9992.9
9993.01
9993.04
9993.06
9993.08
9993.12
9993.17
9993.24
9993.34
9993.65
9994.51
9997.36
10006.5
10021.6
10034.7
10040.3
10041.6
10042
10042.4
10043
10027.6
10027.1
10027
10026.9
10026.8
10026.5
10026.2
10025.8
10025.3
10024.3
10022
10018.1
10012.9
10007.1
10002
9998.98
9997.97
9997.78
9997.75
9997.74
9997.73
9997.7
9997.64
9997.58
9997.55
9997.53
9997.51
9997.5
9997.48
9997.47
9997.45
9997.34
9996.63
9993.63
9988.54
9984.44
9982.56
9981.94
9981.73
9981.63
9981.57
9981.53
9981.52
9981.51
9981.51
9981.49
9981.47
9981.45
9981.44
9981.43
9981.42
9981.42
9981.42
9981.41
9981.41
9981.4
9981.38
9981.37
9981.34
9981.32
9981.29
9981.26
9981.23
9981.2
9981.18
9981.16
9981.15
9981.14
9981.14
9981.14
9981.14
9981.13
9981.09
9980.82
9979.48
9977.38
9976.25
9976.11
9976.1
9976.1
9976.09
9976.08
9976.01
9975.83
9975.51
9974.99
9974.31
9973.85
9973.75
9973.74
9973.74
9973.74
9973.74
9973.74
9973.73
9973.72
9973.71
9973.7
9973.69
9973.66
9973.61
9973.54
9973.49
9973.46
9973.43
9973.4
9973.38
9973.36
9973.36
9973.36
9973.37
9973.39
9973.43
9973.5
9973.59
9973.71
9973.93
9974.24
9974.54
9974.74
9974.88
9975.02
9975.21
9975.38
9975.47
9975.5
9975.55
9975.79
9976.39
9976.9
9977.01
9977.02
9977.02
9977.03
9977.05
9977.06
9977.06
9977.06
9977.06
9977.07
9977.07
9977.09
9977.13
9977.27
9977.44
9977.56
9977.68
9977.91
9978.48
9979.55
9980.61
9981.14
9981.32
9981.4
9981.49
9981.64
9981.79
9981.87
9981.91
9981.93
9982
9982.17
9982.38
9982.51
9982.58
9982.62
9982.65
9982.67
9982.71
9982.81
9983.12
9984.17
9986.28
9988.72
9990.71
9991.52
9991.76
9991.94
9992.19
9992.54
9992.85
9993.01
9993.05
9993.07
9993.09
9993.14
9993.22
9993.34
9993.55
9994.04
9995.16
9997.52
10003.1
10014.5
10029.6
10038.9
10041.3
10041.8
10041.9
10041.8
10029.9
10027.6
10026.7
10026.5
10026.3
10026
10025.7
10025.4
10025.1
10024.6
10023.8
10022
10018.8
10013.4
10006.4
10000.5
9998.18
9997.79
9997.75
9997.74
9997.73
9997.7
9997.64
9997.58
9997.54
9997.53
9997.51
9997.49
9997.48
9997.47
9997.44
9997.27
9995.91
9991.9
9987.17
9984.41
9983.14
9982.54
9982.25
9982.08
9981.98
9981.93
9981.95
9982.01
9982.07
9982.08
9982.05
9981.96
9981.83
9981.69
9981.61
9981.58
9981.59
9981.59
9981.54
9981.46
9981.4
9981.35
9981.31
9981.28
9981.27
9981.26
9981.23
9981.2
9981.17
9981.15
9981.14
9981.14
9981.14
9981.13
9981.11
9981.08
9981
9980.73
9979.54
9977.57
9976.37
9976.15
9976.12
9976.11
9976.09
9976.04
9975.86
9975.58
9975.23
9974.76
9974.21
9973.84
9973.75
9973.74
9973.74
9973.74
9973.74
9973.73
9973.73
9973.72
9973.72
9973.71
9973.7
9973.68
9973.62
9973.55
9973.49
9973.46
9973.43
9973.4
9973.37
9973.35
9973.34
9973.35
9973.36
9973.38
9973.41
9973.47
9973.56
9973.7
9973.91
9974.2
9974.48
9974.67
9974.73
9974.7
9974.66
9974.74
9974.95
9975.18
9975.43
9975.88
9976.51
9976.92
9977.01
9977.02
9977.02
9977.03
9977.04
9977.05
9977.06
9977.06
9977.06
9977.07
9977.08
9977.1
9977.13
9977.19
9977.24
9977.28
9977.32
9977.4
9977.74
9978.77
9980.13
9980.96
9981.27
9981.44
9981.59
9981.74
9981.89
9982
9982.09
9982.18
9982.27
9982.39
9982.49
9982.53
9982.57
9982.6
9982.63
9982.66
9982.72
9982.84
9983.15
9983.8
9984.8
9986.35
9988.86
9990.7
9991.53
9991.94
9992.29
9992.68
9993.06
9993.33
9993.46
9993.57
9993.72
9993.93
9994.06
9994.11
9994.29
9994.88
9996.1
9998.15
10001.5
10007.7
10019.7
10032.3
10038.6
10040.3
10040.4
10039.8
10029.7
10026.8
10025.9
10025.7
10025.7
10025.6
10025.4
10025.2
10025
10024.7
10024.2
10023.1
10020.7
10016.1
10009
10002
9998.51
9997.81
9997.74
9997.73
9997.73
9997.71
9997.66
9997.59
9997.54
9997.52
9997.5
9997.49
9997.48
9997.46
9997.42
9997.21
9995.52
9991.18
9986.72
9984.44
9983.46
9982.99
9982.76
9982.67
9982.68
9982.76
9982.83
9982.86
9982.83
9982.79
9982.75
9982.68
9982.56
9982.42
9982.32
9982.26
9982.23
9982.17
9982
9981.79
9981.59
9981.41
9981.31
9981.28
9981.27
9981.25
9981.21
9981.17
9981.15
9981.14
9981.14
9981.13
9981.09
9981.02
9980.95
9980.9
9980.82
9980.54
9979.35
9977.49
9976.41
9976.21
9976.17
9976.15
9976.11
9975.99
9975.73
9975.4
9975.05
9974.67
9974.27
9973.92
9973.77
9973.74
9973.74
9973.74
9973.74
9973.73
9973.72
9973.72
9973.72
9973.72
9973.71
9973.7
9973.65
9973.57
9973.49
9973.44
9973.4
9973.37
9973.34
9973.33
9973.32
9973.32
9973.32
9973.33
9973.35
9973.39
9973.46
9973.58
9973.78
9974.03
9974.21
9974.19
9973.97
9973.72
9973.55
9973.54
9973.69
9973.94
9974.28
9974.83
9975.63
9976.37
9976.74
9976.84
9976.79
9976.66
9976.58
9976.73
9976.96
9977.05
9977.07
9977.08
9977.09
9977.11
9977.15
9977.2
9977.23
9977.26
9977.28
9977.35
9977.67
9978.71
9980.11
9980.99
9981.38
9981.65
9981.86
9982
9982.11
9982.23
9982.36
9982.45
9982.48
9982.49
9982.51
9982.53
9982.56
9982.58
9982.6
9982.63
9982.68
9982.82
9983.19
9983.79
9984.39
9985.06
9986.38
9987.92
9989.51
9991.38
9992.81
9993.51
9993.89
9994.13
9994.29
9994.5
9994.88
9995.37
9995.64
9995.62
9995.55
9995.85
9996.92
9998.81
10001.5
10005.6
10012.3
10020.7
10028.2
10032.9
10035.2
10036
10026.1
10025.4
10025.3
10025.2
10025.3
10025.3
10025.3
10025.2
10025
10024.7
10024.2
10023.1
10021.1
10018.2
10013.3
10005.8
9999.72
9997.94
9997.75
9997.73
9997.73
9997.71
9997.66
9997.57
9997.5
9997.48
9997.48
9997.47
9997.46
9997.43
9997.38
9997.22
9996.16
9992.61
9987.82
9984.86
9983.72
9983.32
9983.21
9983.23
9983.32
9983.41
9983.41
9983.28
9983.09
9982.95
9982.89
9982.87
9982.86
9982.86
9982.85
9982.82
9982.76
9982.64
9982.41
9982.15
9981.88
9981.59
9981.37
9981.29
9981.25
9981.22
9981.17
9981.15
9981.15
9981.14
9981.13
9981.1
9980.99
9980.84
9980.74
9980.7
9980.63
9980.35
9979.26
9977.54
9976.49
9976.28
9976.25
9976.21
9976.15
9975.96
9975.62
9975.27
9974.99
9974.74
9974.47
9974.16
9973.91
9973.78
9973.75
9973.74
9973.73
9973.73
9973.72
9973.72
9973.72
9973.72
9973.72
9973.7
9973.66
9973.56
9973.44
9973.37
9973.35
9973.33
9973.32
9973.31
9973.3
9973.3
9973.3
9973.3
9973.3
9973.31
9973.34
9973.41
9973.51
9973.57
9973.53
9973.35
9973.11
9972.96
9972.92
9972.92
9972.92
9972.97
9973.1
9973.38
9973.83
9974.39
9974.8
9975
9975.06
9975.09
9975.29
9975.86
9976.59
9976.97
9977.06
9977.08
9977.1
9977.12
9977.16
9977.2
9977.23
9977.25
9977.27
9977.36
9977.82
9979.04
9980.48
9981.37
9981.78
9982.02
9982.13
9982.18
9982.22
9982.31
9982.42
9982.48
9982.5
9982.5
9982.51
9982.51
9982.53
9982.55
9982.58
9982.6
9982.64
9982.75
9983.01
9983.36
9983.73
9984.04
9984.44
9985.06
9986.85
9990.26
9993.18
9994.28
9994.57
9994.67
9994.79
9995.06
9995.6
9996.23
9996.61
9996.71
9996.64
9996.78
9997.75
9999.69
10002.2
10005.1
10008.5
10012.9
10018.9
10025.2
10029.8
10032.4
10025.4
10025.3
10025.2
10025.2
10025
10024.8
10024.5
10024.3
10024.2
10023.9
10023.1
10022.1
10021.1
10020.2
10018.5
10013
10004.4
9999.3
9997.97
9997.76
9997.71
9997.66
9997.56
9997.46
9997.39
9997.37
9997.37
9997.38
9997.38
9997.36
9997.32
9997.16
9996.4
9993.65
9989
9985.4
9983.99
9983.63
9983.58
9983.59
9983.6
9983.58
9983.53
9983.4
9983.17
9982.98
9982.89
9982.87
9982.86
9982.86
9982.86
9982.86
9982.85
9982.77
9982.56
9982.3
9982.08
9981.82
9981.53
9981.31
9981.19
9981.13
9981.11
9981.11
9981.12
9981.12
9981.08
9980.99
9980.84
9980.69
9980.57
9980.45
9980.17
9979.54
9978.43
9977.22
9976.56
9976.37
9976.3
9976.24
9976.13
9975.88
9975.55
9975.28
9975.1
9974.92
9974.68
9974.4
9974.12
9973.91
9973.8
9973.75
9973.74
9973.73
9973.73
9973.72
9973.72
9973.72
9973.72
9973.7
9973.62
9973.48
9973.36
9973.32
9973.31
9973.31
9973.31
9973.3
9973.3
9973.3
9973.29
9973.29
9973.29
9973.29
9973.3
9973.32
9973.28
9973.15
9973.02
9972.94
9972.91
9972.9
9972.9
9972.89
9972.89
9972.9
9972.91
9972.95
9973.01
9973.08
9973.16
9973.26
9973.42
9973.66
9974.1
9974.83
9975.78
9976.52
9976.89
9977.02
9977.07
9977.11
9977.16
9977.19
9977.21
9977.23
9977.26
9977.44
9978.16
9979.66
9981.14
9981.88
9982.13
9982.2
9982.21
9982.22
9982.22
9982.27
9982.37
9982.46
9982.5
9982.5
9982.51
9982.51
9982.51
9982.52
9982.54
9982.56
9982.61
9982.69
9982.81
9982.96
9983.14
9983.29
9983.44
9983.88
9985.63
9989.33
9992.9
9994.39
9994.7
9994.79
9994.92
9995.3
9995.98
9996.6
9996.89
9996.98
9997
9997.3
9998.59
10000.8
10002.7
10004.2
10005.9
10009.2
10015.3
10022.6
10028.1
10030.7
10025.4
10025.2
10025.1
10024.9
10024.4
10023.8
10023.4
10023.1
10022.9
10022.6
10022
10021.6
10021.4
10021.3
10020.8
10018
10010.4
10002.4
9998.66
9997.85
9997.68
9997.57
9997.46
9997.36
9997.29
9997.26
9997.25
9997.26
9997.27
9997.28
9997.25
9997.04
9995.92
9992.47
9987.81
9984.92
9983.96
9983.75
9983.7
9983.67
9983.65
9983.62
9983.58
9983.5
9983.32
9983.09
9982.92
9982.87
9982.86
9982.86
9982.86
9982.86
9982.86
9982.84
9982.68
9982.39
9982.09
9981.77
9981.4
9981.11
9980.97
9980.94
9980.93
9980.91
9980.89
9980.85
9980.76
9980.65
9980.52
9980.36
9980.16
9979.82
9979.24
9978.41
9977.59
9977.01
9976.67
9976.47
9976.34
9976.25
9976.08
9975.79
9975.49
9975.29
9975.17
9975.02
9974.79
9974.49
9974.22
9974.02
9973.89
9973.82
9973.79
9973.78
9973.77
9973.76
9973.74
9973.73
9973.72
9973.69
9973.57
9973.43
9973.34
9973.31
9973.31
9973.31
9973.3
9973.3
9973.3
9973.29
9973.29
9973.29
9973.29
9973.29
9973.28
9973.26
9973.16
9973.03
9972.94
9972.91
9972.9
9972.9
9972.89
9972.89
9972.89
9972.89
9972.9
9972.92
9972.97
9973.03
9973.1
9973.16
9973.24
9973.37
9973.68
9974.27
9975.08
9975.97
9976.62
9976.89
9977
9977.07
9977.12
9977.16
9977.18
9977.2
9977.23
9977.4
9978.22
9980
9981.57
9982.13
9982.21
9982.22
9982.22
9982.22
9982.22
9982.24
9982.32
9982.42
9982.48
9982.5
9982.51
9982.51
9982.51
9982.51
9982.51
9982.53
9982.57
9982.65
9982.75
9982.85
9982.94
9983.03
9983.17
9983.61
9985.16
9988.64
9992.39
9994.29
9994.85
9995.09
9995.43
9996.01
9996.67
9997.08
9997.23
9997.26
9997.3
9997.84
9999.51
10001.5
10002.6
10003.3
10004.1
10006.1
10011.3
10019
10025.5
10028.6
10025.3
10024.7
10024.3
10023.9
10023.4
10023
10022.9
10022.7
10022.3
10021.9
10021.7
10021.6
10021.5
10021.5
10021.4
10020.1
10014.7
10005.7
9999.76
9998.06
9997.69
9997.54
9997.42
9997.32
9997.25
9997.21
9997.2
9997.2
9997.2
9997.21
9997.17
9996.8
9994.94
9990.62
9986.28
9984.33
9983.86
9983.76
9983.73
9983.7
9983.67
9983.64
9983.61
9983.57
9983.49
9983.32
9983.06
9982.89
9982.86
9982.86
9982.86
9982.86
9982.86
9982.85
9982.68
9982.23
9981.71
9981.3
9980.99
9980.81
9980.75
9980.74
9980.73
9980.69
9980.63
9980.55
9980.43
9980.31
9980.19
9980.01
9979.73
9979.3
9978.71
9978.08
9977.55
9977.14
9976.82
9976.58
9976.39
9976.21
9976
9975.73
9975.46
9975.29
9975.18
9975.06
9974.88
9974.59
9974.26
9974.01
9973.88
9973.85
9973.84
9973.84
9973.83
9973.81
9973.79
9973.76
9973.73
9973.65
9973.52
9973.4
9973.33
9973.31
9973.31
9973.31
9973.3
9973.3
9973.3
9973.29
9973.29
9973.29
9973.28
9973.28
9973.27
9973.24
9973.16
9973.05
9972.95
9972.91
9972.9
9972.9
9972.89
9972.89
9972.89
9972.89
9972.88
9972.89
9972.93
9972.99
9973.06
9973.14
9973.22
9973.37
9973.69
9974.26
9975
9975.82
9976.43
9976.74
9976.91
9977.02
9977.08
9977.13
9977.16
9977.18
9977.2
9977.27
9977.77
9979.49
9981.38
9982.12
9982.21
9982.22
9982.22
9982.22
9982.23
9982.24
9982.3
9982.38
9982.46
9982.5
9982.51
9982.51
9982.51
9982.51
9982.51
9982.52
9982.55
9982.62
9982.71
9982.81
9982.9
9982.99
9983.13
9983.6
9985.3
9988.91
9992.61
9994.61
9995.36
9995.78
9996.28
9996.89
9997.34
9997.54
9997.6
9997.61
9997.66
9998.13
9999.42
10000.9
10002.1
10002.9
10003.8
10005.8
10010.5
10016.6
10021.5
10025.2
10024.3
10023.6
10023.2
10023
10023
10022.9
10022.8
10022.6
10022.2
10021.8
10021.6
10021.6
10021.6
10021.5
10021.4
10020.7
10017.1
10009.8
10002.9
9999.49
9998.14
9997.58
9997.35
9997.26
9997.21
9997.19
9997.19
9997.18
9997.17
9997.15
9997.08
9996.68
9994.74
9990.35
9986.05
9984.21
9983.83
9983.77
9983.74
9983.72
9983.69
9983.65
9983.61
9983.58
9983.56
9983.51
9983.35
9983.1
9982.93
9982.87
9982.86
9982.86
9982.86
9982.82
9982.51
9981.81
9981.18
9980.88
9980.76
9980.71
9980.68
9980.66
9980.64
9980.61
9980.55
9980.47
9980.36
9980.21
9980.05
9979.85
9979.58
9979.21
9978.8
9978.41
9978.03
9977.59
9977.08
9976.62
9976.27
9976.01
9975.83
9975.68
9975.52
9975.35
9975.21
9975.09
9974.94
9974.65
9974.23
9973.94
9973.86
9973.85
9973.84
9973.84
9973.84
9973.83
9973.81
9973.78
9973.71
9973.59
9973.46
9973.37
9973.33
9973.31
9973.31
9973.31
9973.3
9973.3
9973.3
9973.29
9973.29
9973.28
9973.28
9973.28
9973.27
9973.26
9973.2
9973.09
9972.99
9972.93
9972.9
9972.89
9972.89
9972.88
9972.87
9972.86
9972.83
9972.79
9972.78
9972.8
9972.84
9972.92
9973.11
9973.45
9973.99
9974.68
9975.36
9975.93
9976.33
9976.6
9976.82
9976.98
9977.08
9977.14
9977.16
9977.17
9977.18
9977.22
9977.52
9978.75
9980.56
9981.64
9981.97
9982.13
9982.2
9982.22
9982.23
9982.25
9982.31
9982.38
9982.45
9982.48
9982.5
9982.51
9982.51
9982.51
9982.52
9982.52
9982.54
9982.59
9982.67
9982.77
9982.89
9983.03
9983.3
9984.18
9986.62
9990.42
9993.52
9995.08
9995.77
9996.21
9996.69
9997.21
9997.55
9997.69
9997.73
9997.76
9997.84
9998.06
9998.63
9999.53
10000.6
10002
10003.9
10007.7
10012.9
10016.5
10018.8
10021.8
10023.2
10023
10023
10023
10022.9
10022.9
10022.7
10022.3
10021.9
10021.7
10021.6
10021.6
10021.5
10021.5
10021.3
10020.4
10017.1
10011
10004.6
10000.6
9998.51
9997.61
9997.32
9997.24
9997.21
9997.19
9997.18
9997.16
9997.12
9997.05
9996.92
9996.6
9995.38
9991.88
9987.27
9984.64
9983.97
9983.81
9983.76
9983.73
9983.7
9983.66
9983.61
9983.58
9983.57
9983.56
9983.52
9983.37
9983.11
9982.94
9982.89
9982.88
9982.86
9982.71
9982.19
9981.42
9980.93
9980.76
9980.71
9980.69
9980.68
9980.65
9980.6
9980.52
9980.39
9980.25
9980.1
9979.94
9979.76
9979.57
9979.36
9979.14
9978.97
9978.84
9978.66
9978.29
9977.55
9976.67
9976.07
9975.8
9975.7
9975.64
9975.59
9975.5
9975.35
9975.16
9974.95
9974.56
9974.1
9973.88
9973.85
9973.85
9973.85
9973.84
9973.84
9973.83
9973.8
9973.73
9973.65
9973.55
9973.45
9973.38
9973.34
9973.32
9973.31
9973.31
9973.31
9973.3
9973.3
9973.29
9973.28
9973.28
9973.28
9973.28
9973.27
9973.27
9973.23
9973.14
9973.03
9972.94
9972.88
9972.86
9972.85
9972.85
9972.83
9972.8
9972.73
9972.61
9972.51
9972.47
9972.49
9972.6
9972.86
9973.31
9973.97
9974.76
9975.48
9975.97
9976.25
9976.46
9976.7
9976.92
9977.07
9977.14
9977.17
9977.18
9977.19
9977.25
9977.61
9978.68
9980.09
9980.99
9981.43
9981.74
9981.91
9981.96
9982
9982.11
9982.27
9982.37
9982.43
9982.47
9982.49
9982.51
9982.51
9982.51
9982.51
9982.52
9982.54
9982.59
9982.7
9982.88
9983.1
9983.32
9983.69
9984.83
9987.5
9991.04
9993.66
9995.04
9995.75
9996.26
9996.82
9997.34
9997.63
9997.72
9997.75
9997.79
9997.89
9998.1
9998.37
9998.67
9999.23
10000.7
10004.3
10010
10014.6
10016.6
10017.6
10019.5
10022.9
10022.9
10022.9
10022.9
10022.8
10022.5
10022
10021.4
10021
10020.9
10021
10021
10020.9
10020.7
10020.3
10019
10015.4
10009.1
10003.5
10000.4
9998.64
9997.71
9997.37
9997.27
9997.22
9997.19
9997.16
9997.11
9997.02
9996.88
9996.67
9996.33
9995.62
9993.56
9989.63
9986.15
9984.64
9984.1
9983.9
9983.81
9983.74
9983.66
9983.6
9983.58
9983.57
9983.57
9983.55
9983.49
9983.29
9983.07
9982.97
9982.95
9982.92
9982.77
9982.24
9981.41
9980.88
9980.73
9980.7
9980.69
9980.68
9980.65
9980.55
9980.36
9980.14
9979.96
9979.82
9979.69
9979.57
9979.45
9979.32
9979.19
9979.05
9978.96
9978.86
9978.62
9977.85
9976.67
9975.93
9975.7
9975.64
9975.62
9975.61
9975.6
9975.53
9975.4
9975.13
9974.59
9974.07
9973.88
9973.85
9973.85
9973.85
9973.84
9973.83
9973.78
9973.71
9973.63
9973.57
9973.54
9973.48
9973.42
9973.37
9973.34
9973.33
9973.32
9973.31
9973.3
9973.29
9973.28
9973.28
9973.28
9973.28
9973.28
9973.27
9973.27
9973.25
9973.19
9973.08
9972.95
9972.84
9972.8
9972.79
9972.78
9972.76
9972.69
9972.53
9972.36
9972.27
9972.25
9972.29
9972.42
9972.67
9973.11
9973.82
9974.75
9975.54
9975.97
9976.17
9976.31
9976.48
9976.72
9976.97
9977.13
9977.18
9977.2
9977.23
9977.41
9977.94
9978.87
9979.88
9980.6
9981.01
9981.28
9981.4
9981.32
9981.26
9981.41
9981.77
9982.11
9982.3
9982.41
9982.47
9982.5
9982.51
9982.51
9982.51
9982.52
9982.56
9982.68
9982.93
9983.21
9983.45
9983.62
9983.81
9984.41
9986.35
9989.78
9992.87
9994.66
9995.6
9996.32
9997.01
9997.52
9997.7
9997.73
9997.74
9997.78
9997.91
9998.16
9998.41
9998.6
9998.87
9999.97
10004
10010.4
10015
10016.6
10017.2
10018.2
10022.9
10022.8
10022.7
10022.6
10022.3
10021.7
10021.1
10020.5
10020
10019.6
10019.4
10019.3
10019.1
10018.6
10017.6
10015.9
10012.8
10008.2
10004.3
10001.7
9999.53
9998.07
9997.49
9997.3
9997.23
9997.19
9997.14
9997.06
9996.94
9996.75
9996.48
9996.04
9995.29
9993.82
9991.06
9987.8
9985.69
9984.82
9984.47
9984.29
9984.1
9983.84
9983.65
9983.59
9983.58
9983.58
9983.57
9983.54
9983.44
9983.3
9983.2
9983.15
9983.09
9982.98
9982.63
9981.87
9981.09
9980.75
9980.69
9980.68
9980.65
9980.58
9980.41
9980.18
9979.98
9979.85
9979.75
9979.67
9979.59
9979.5
9979.42
9979.31
9979.16
9979.02
9978.83
9978.33
9977.25
9976.15
9975.72
9975.64
9975.62
9975.62
9975.61
9975.61
9975.6
9975.55
9975.37
9974.89
9974.3
9973.97
9973.87
9973.85
9973.85
9973.84
9973.8
9973.72
9973.64
9973.58
9973.55
9973.53
9973.5
9973.46
9973.42
9973.38
9973.35
9973.33
9973.31
9973.29
9973.29
9973.28
9973.28
9973.28
9973.28
9973.28
9973.27
9973.26
9973.24
9973.2
9973.12
9972.98
9972.79
9972.63
9972.52
9972.45
9972.4
9972.32
9972.21
9972.18
9972.19
9972.19
9972.21
9972.3
9972.56
9973.16
9974.15
9975.16
9975.75
9976
9976.11
9976.18
9976.25
9976.39
9976.66
9977.05
9977.35
9977.46
9977.58
9977.84
9978.26
9978.77
9979.41
9980.07
9980.57
9980.87
9980.89
9980.68
9980.51
9980.53
9980.82
9981.28
9981.76
9982.14
9982.39
9982.48
9982.51
9982.51
9982.52
9982.54
9982.6
9982.73
9983.01
9983.33
9983.55
9983.67
9983.79
9984.08
9985.18
9987.79
9990.85
9992.93
9994.17
9995.4
9996.72
9997.53
9997.71
9997.73
9997.74
9997.76
9997.88
9998.15
9998.44
9998.66
9998.91
9999.66
10002.5
10008.5
10014.1
10016.3
10016.9
10017
10022.8
10022.6
10022.3
10022.1
10021.8
10021.4
10020.7
10019.9
10019.1
10018.3
10017.9
10017.6
10017.2
10016.2
10014.6
10012.9
10010.9
10008.7
10006.4
10004.2
10001.9
9999.76
9998.27
9997.53
9997.29
9997.21
9997.15
9997.08
9996.95
9996.71
9996.32
9995.71
9994.76
9993.26
9991.1
9988.69
9986.84
9985.9
9985.51
9985.34
9985.11
9984.57
9983.98
9983.69
9983.62
9983.6
9983.6
9983.6
9983.56
9983.5
9983.43
9983.36
9983.26
9983.15
9982.92
9982.4
9981.61
9980.95
9980.64
9980.52
9980.44
9980.34
9980.22
9980.09
9979.96
9979.84
9979.75
9979.67
9979.6
9979.53
9979.46
9979.35
9979.15
9978.64
9977.79
9976.93
9976.19
9975.75
9975.64
9975.62
9975.62
9975.61
9975.61
9975.6
9975.59
9975.55
9975.42
9975.08
9974.59
9974.15
9973.95
9973.88
9973.86
9973.83
9973.78
9973.71
9973.64
9973.58
9973.55
9973.53
9973.5
9973.47
9973.44
9973.41
9973.38
9973.34
9973.31
9973.29
9973.28
9973.28
9973.28
9973.28
9973.28
9973.27
9973.27
9973.25
9973.22
9973.16
9973.02
9972.76
9972.4
9972.11
9971.95
9971.87
9971.84
9971.87
9971.99
9972.13
9972.18
9972.19
9972.19
9972.24
9972.51
9973.43
9974.71
9975.56
9975.9
9976.02
9976.08
9976.12
9976.16
9976.23
9976.46
9976.99
9977.59
9977.92
9978.1
9978.28
9978.48
9978.71
9979
9979.34
9979.69
9979.98
9980.11
9980.06
9979.99
9980.02
9980.2
9980.59
9981.18
9981.76
9982.17
9982.37
9982.46
9982.5
9982.53
9982.56
9982.61
9982.7
9982.92
9983.27
9983.54
9983.68
9983.81
9984.08
9984.79
9986.35
9988.53
9990.21
9991.23
9992.51
9994.59
9996.82
9997.62
9997.72
9997.74
9997.78
9997.93
9998.23
9998.55
9998.8
9999.05
9999.53
10001
10005
10010.7
10014.4
10015.6
10015.4
10022.3
10021.9
10021.5
10021.1
10020.9
10020.6
10019.9
10019
10018.1
10017.5
10017.3
10017.1
10016.5
10015.3
10013.8
10012.4
10010.9
10009.2
10007.3
10005.6
10003.7
10001.3
9999.13
9997.87
9997.41
9997.27
9997.21
9997.15
9997.04
9996.74
9996.14
9995.24
9994.03
9992.28
9990.38
9988.84
9987.73
9987.03
9986.65
9986.47
9986.21
9985.54
9984.57
9983.93
9983.72
9983.68
9983.69
9983.69
9983.64
9983.57
9983.51
9983.44
9983.35
9983.23
9982.99
9982.55
9981.88
9981.11
9980.55
9980.33
9980.25
9980.19
9980.13
9980.05
9979.95
9979.84
9979.76
9979.69
9979.63
9979.55
9979.45
9979.28
9978.84
9977.77
9976.47
9975.79
9975.64
9975.61
9975.6
9975.6
9975.6
9975.59
9975.58
9975.57
9975.54
9975.49
9975.35
9975.07
9974.63
9974.22
9973.99
9973.91
9973.88
9973.86
9973.8
9973.72
9973.64
9973.59
9973.55
9973.51
9973.48
9973.47
9973.46
9973.44
9973.41
9973.36
9973.32
9973.29
9973.28
9973.28
9973.28
9973.28
9973.28
9973.26
9973.21
9973.12
9972.97
9972.69
9972.34
9972.02
9971.75
9971.6
9971.54
9971.52
9971.53
9971.58
9971.72
9971.95
9972.12
9972.17
9972.18
9972.24
9972.59
9973.67
9974.96
9975.67
9975.92
9976.02
9976.08
9976.12
9976.17
9976.28
9976.56
9977.13
9977.77
9978.16
9978.33
9978.43
9978.55
9978.7
9978.85
9978.98
9979.09
9979.2
9979.31
9979.39
9979.46
9979.58
9979.82
9980.26
9980.91
9981.58
9982.04
9982.29
9982.4
9982.46
9982.5
9982.54
9982.59
9982.67
9982.84
9983.18
9983.52
9983.75
9983.95
9984.36
9985.12
9986
9987.17
9988.25
9988.92
9989.61
9991.06
9993.91
9996.26
9997.34
9997.71
9997.88
9998.1
9998.39
9998.66
9998.88
9999.1
9999.44
10000.4
10002.9
10006.8
10010
10011.6
10012.1
10021.5
10020.9
10020.2
10019.4
10018.9
10018.6
10018.3
10017.9
10017.6
10017.4
10017.2
10017
10016.4
10015.3
10013.9
10012.7
10011.3
10009.5
10007.5
10005.4
10003.1
10000.6
9998.79
9997.92
9997.53
9997.35
9997.26
9997.21
9997.13
9996.92
9996.27
9994.97
9993.12
9991
9989.3
9988.33
9987.79
9987.42
9987.16
9986.98
9986.78
9986.28
9985.25
9984.31
9983.93
9983.85
9983.85
9983.8
9983.7
9983.62
9983.56
9983.48
9983.34
9983.13
9982.86
9982.48
9981.83
9981.02
9980.44
9980.27
9980.24
9980.21
9980.16
9980.07
9979.95
9979.83
9979.76
9979.7
9979.64
9979.54
9979.39
9979.18
9978.66
9977.44
9976.18
9975.68
9975.6
9975.59
9975.59
9975.58
9975.56
9975.5
9975.38
9975.2
9975.01
9974.87
9974.77
9974.64
9974.42
9974.19
9974.05
9974.01
9974
9973.98
9973.94
9973.82
9973.67
9973.59
9973.54
9973.5
9973.48
9973.47
9973.47
9973.46
9973.44
9973.39
9973.33
9973.29
9973.28
9973.28
9973.28
9973.28
9973.25
9973.18
9973.05
9972.83
9972.47
9971.98
9971.62
9971.5
9971.47
9971.47
9971.46
9971.47
9971.47
9971.47
9971.49
9971.6
9971.75
9971.85
9971.92
9972.02
9972.38
9973.27
9974.48
9975.35
9975.73
9975.87
9975.95
9976.02
9976.13
9976.3
9976.65
9977.23
9977.8
9978.15
9978.32
9978.44
9978.57
9978.74
9978.88
9978.95
9978.98
9979
9979.03
9979.08
9979.16
9979.27
9979.46
9979.82
9980.49
9981.36
9981.99
9982.27
9982.38
9982.43
9982.46
9982.5
9982.55
9982.61
9982.73
9983.08
9983.78
9984.51
9984.98
9985.42
9985.92
9986.28
9986.71
9987.22
9987.65
9988.03
9988.76
9990.63
9993.49
9996.04
9997.44
9997.9
9998.12
9998.35
9998.6
9998.85
9999.13
9999.59
10000.7
10003
10005.5
10007
10008
10008.9
10020.8
10019.5
10018.3
10017.6
10017.2
10017
10016.9
10017
10017
10016.9
10016.8
10016.3
10015.5
10014.7
10014.1
10013.6
10012.7
10010.9
10008.1
10004.8
10001.9
9999.75
9998.62
9998.07
9997.72
9997.48
9997.34
9997.25
9997.18
9997.06
9996.63
9995.29
9992.75
9990.18
9988.68
9987.96
9987.6
9987.31
9987.1
9986.99
9986.93
9986.78
9986.24
9985.33
9984.64
9984.4
9984.33
9984.18
9983.97
9983.81
9983.66
9983.37
9983.05
9982.84
9982.7
9982.55
9982.19
9981.44
9980.64
9980.35
9980.31
9980.35
9980.52
9980.68
9980.65
9980.44
9980.15
9979.9
9979.67
9979.47
9979.32
9979.18
9978.87
9977.82
9976.4
9975.69
9975.6
9975.59
9975.59
9975.57
9975.51
9975.31
9974.96
9974.59
9974.33
9974.21
9974.18
9974.16
9974.15
9974.13
9974.11
9974.11
9974.11
9974.1
9974.09
9974.02
9973.84
9973.66
9973.55
9973.5
9973.48
9973.48
9973.48
9973.49
9973.48
9973.46
9973.39
9973.32
9973.29
9973.28
9973.27
9973.25
9973.18
9973.03
9972.79
9972.41
9971.96
9971.6
9971.47
9971.46
9971.46
9971.46
9971.46
9971.46
9971.46
9971.47
9971.47
9971.47
9971.49
9971.53
9971.58
9971.66
9971.81
9972.15
9972.81
9973.62
9974.39
9974.96
9975.3
9975.55
9975.8
9976.08
9976.49
9977
9977.45
9977.77
9978.04
9978.31
9978.57
9978.78
9978.91
9978.96
9978.98
9978.99
9979.01
9979.04
9979.1
9979.19
9979.31
9979.52
9980.05
9980.94
9981.75
9982.17
9982.34
9982.4
9982.44
9982.47
9982.49
9982.47
9982.48
9983.12
9984.46
9985.54
9985.99
9986.19
9986.33
9986.47
9986.65
9986.84
9987
9987.15
9987.44
9988.25
9989.98
9992.59
9995.08
9996.09
9995.99
9995.63
9995.52
9995.89
9997.1
9999.19
10001.6
10004.1
10006
10006.8
10007.2
10007.3
10019.7
10017.8
10017
10016.8
10016.8
10016.7
10016.7
10016.7
10016.6
10016.5
10016.1
10015.4
10014.6
10014.4
10014.3
10014.2
10014
10012.9
10009.8
10005.3
10001.8
9999.89
9999.03
9998.51
9998.14
9997.87
9997.66
9997.5
9997.37
9997.25
9996.96
9995.93
9993.33
9990.23
9988.45
9987.76
9987.41
9987.16
9987
9986.94
9986.92
9986.89
9986.79
9986.39
9985.84
9985.52
9985.39
9985.24
9985.02
9984.6
9983.86
9983.11
9982.74
9982.66
9982.64
9982.63
9982.58
9982.28
9981.62
9981.21
9981.11
9981.19
9981.4
9981.59
9981.62
9981.45
9981.1
9980.59
9980.01
9979.56
9979.33
9979.18
9978.87
9977.83
9976.26
9975.42
9975.37
9975.5
9975.53
9975.49
9975.34
9975.01
9974.59
9974.3
9974.18
9974.15
9974.15
9974.14
9974.14
9974.13
9974.12
9974.11
9974.11
9974.11
9974.11
9974.09
9973.97
9973.8
9973.64
9973.56
9973.53
9973.52
9973.51
9973.52
9973.53
9973.53
9973.49
9973.39
9973.31
9973.28
9973.25
9973.21
9973.11
9972.88
9972.41
9971.84
9971.49
9971.4
9971.42
9971.45
9971.46
9971.46
9971.46
9971.46
9971.46
9971.46
9971.47
9971.46
9971.46
9971.47
9971.5
9971.56
9971.63
9971.68
9971.76
9972.05
9972.8
9973.76
9974.47
9974.91
9975.28
9975.69
9976.16
9976.59
9976.9
9977.16
9977.48
9977.91
9978.38
9978.74
9978.91
9978.96
9978.97
9978.98
9979
9979.03
9979.07
9979.14
9979.22
9979.38
9979.79
9980.54
9981.38
9981.93
9982.19
9982.29
9982.29
9982.15
9981.85
9981.63
9981.81
9982.96
9984.64
9985.76
9986.17
9986.31
9986.41
9986.52
9986.65
9986.78
9986.88
9986.96
9987.07
9987.31
9987.68
9988.58
9990.5
9992.11
9992.29
9991.83
9991.58
9991.73
9992.64
9994.81
9998.45
10002.7
10005.5
10006.5
10006.6
10005.8
10018.6
10017
10016.8
10016.7
10016.7
10016.7
10016.7
10016.6
10016.5
10016.3
10015.8
10014.9
10014.4
10014.3
10014.3
10014.3
10014.3
10014
10012
10007.5
10003
10000.5
9999.56
9999
9998.61
9998.37
9998.32
9998.46
9998.58
9998.51
9998.14
9997.15
9994.88
9991.55
9988.9
9987.7
9987.27
9987.07
9986.97
9986.93
9986.91
9986.88
9986.81
9986.65
9986.42
9986.21
9986.09
9986.01
9985.89
9985.45
9984.31
9983.16
9982.7
9982.64
9982.64
9982.63
9982.62
9982.55
9982.32
9982.03
9981.88
9981.86
9981.87
9981.88
9981.87
9981.84
9981.7
9981.27
9980.54
9979.83
9979.38
9978.95
9978.13
9976.64
9975.24
9974.69
9974.68
9974.83
9974.99
9975.1
9975
9974.72
9974.42
9974.24
9974.17
9974.15
9974.15
9974.14
9974.14
9974.13
9974.12
9974.11
9974.11
9974.11
9974.11
9974.07
9973.97
9973.81
9973.69
9973.64
9973.61
9973.57
9973.55
9973.55
9973.55
9973.55
9973.54
9973.46
9973.35
9973.27
9973.22
9973.16
9973.04
9972.65
9971.91
9971.33
9971.2
9971.27
9971.35
9971.41
9971.44
9971.45
9971.46
9971.46
9971.45
9971.44
9971.44
9971.43
9971.43
9971.42
9971.46
9971.56
9971.65
9971.7
9971.74
9971.87
9972.3
9973.08
9973.89
9974.47
9974.96
9975.46
9975.92
9976.28
9976.57
9976.83
9977.09
9977.5
9978.08
9978.6
9978.86
9978.93
9978.94
9978.95
9978.95
9978.96
9978.98
9979.02
9979.09
9979.21
9979.48
9980.06
9980.86
9981.49
9981.79
9981.74
9981.35
9980.9
9980.53
9980.41
9980.76
9981.86
9983.55
9985.02
9985.85
9986.23
9986.41
9986.52
9986.62
9986.72
9986.82
9986.92
9987.03
9987.13
9987.01
9986.61
9987.21
9988.94
9990.28
9990.59
9990.6
9990.58
9990.61
9991.02
9992.83
9996.36
10000
10002.5
10003.3
10002.7
10017.3
10016.6
10016.5
10016.6
10016.6
10016.6
10016.5
10016.4
10016.2
10015.8
10015.2
10014.6
10014.4
10014.3
10014.3
10014.3
10014.3
10014.2
10013.3
10010.2
10005
10001.3
10000
9999.37
9998.97
9998.98
9999.74
10000.5
10000.8
10000.8
10000.4
9999.3
9997.02
9993.55
9990.14
9988.09
9987.3
9987.05
9986.95
9986.91
9986.87
9986.82
9986.73
9986.58
9986.41
9986.24
9986.13
9986.05
9985.93
9985.47
9984.23
9983.06
9982.67
9982.64
9982.63
9982.63
9982.63
9982.59
9982.41
9982.13
9981.95
9981.9
9981.89
9981.89
9981.88
9981.87
9981.78
9981.35
9980.49
9979.63
9979.06
9978.46
9977.33
9975.81
9974.74
9974.33
9974.22
9974.21
9974.3
9974.43
9974.46
9974.35
9974.23
9974.15
9974.12
9974.12
9974.13
9974.13
9974.13
9974.13
9974.12
9974.11
9974.11
9974.1
9974.09
9974.02
9973.87
9973.74
9973.68
9973.67
9973.66
9973.64
9973.61
9973.58
9973.56
9973.55
9973.54
9973.47
9973.14
9972.7
9972.51
9972.42
9972.17
9971.67
9971.14
9970.92
9970.97
9971.07
9971.17
9971.27
9971.36
9971.4
9971.41
9971.38