/*--------------------------------*- C++ -*----------------------------------*\
  =========                 |
  \\      /  F ield         | OpenFOAM: The Open Source CFD Toolbox
   \\    /   O peration     | Website:  https://openfoam.org
    \\  /    A nd           | Version:  8
     \\/     M anipulation  |
\*---------------------------------------------------------------------------*/
FoamFile
{
    version     2.0;
    format      ascii;
    class       surfaceSymmTensorField;
    location    "1";
    object      Mf;
}
// * * * * * * * * * * * * * * * * * * * * * * * * * * * * * * * * * * * * * //

dimensions      [-1 3 1 0 0 0 0];

internalField   nonuniform List<symmTensor> 
39700
(
(3.75151e-06 0 0 3.75151e-06 0 3.75151e-06)
(1.79582e-06 0 0 1.79582e-06 0 1.79582e-06)
(6.84398e-06 0 0 6.84398e-06 0 6.84398e-06)
(5.3126e-06 0 0 5.3126e-06 0 5.3126e-06)
(1.07771e-05 0 0 1.07771e-05 0 1.07771e-05)
(1.36786e-05 0 0 1.36786e-05 0 1.36786e-05)
(1.07541e-05 0 0 1.07541e-05 0 1.07541e-05)
(2.07548e-05 0 0 2.07548e-05 0 2.07548e-05)
(5.8656e-06 0 0 5.8656e-06 0 5.8656e-06)
(1.60493e-05 0 0 1.60493e-05 0 1.60493e-05)
(2.28754e-06 0 0 2.28754e-06 0 2.28754e-06)
(6.74392e-06 0 0 6.74392e-06 0 6.74392e-06)
(9.63774e-07 0 0 9.63774e-07 0 9.63774e-07)
(2.14053e-06 0 0 2.14053e-06 0 2.14053e-06)
(5.45614e-07 0 0 5.45614e-07 0 5.45614e-07)
(8.12116e-07 0 0 8.12116e-07 0 8.12116e-07)
(4.22816e-07 0 0 4.22816e-07 0 4.22816e-07)
(4.97839e-07 0 0 4.97839e-07 0 4.97839e-07)
(4.29814e-07 0 0 4.29814e-07 0 4.29814e-07)
(4.73288e-07 0 0 4.73288e-07 0 4.73288e-07)
(5.74058e-07 0 0 5.74058e-07 0 5.74058e-07)
(5.94898e-07 0 0 5.94898e-07 0 5.94898e-07)
(1.05961e-06 0 0 1.05961e-06 0 1.05961e-06)
(9.91275e-07 0 0 9.91275e-07 0 9.91275e-07)
(2.68937e-06 0 0 2.68937e-06 0 2.68937e-06)
(2.3487e-06 0 0 2.3487e-06 0 2.3487e-06)
(7.46442e-06 0 0 7.46442e-06 0 7.46442e-06)
(6.89589e-06 0 0 6.89589e-06 0 6.89589e-06)
(1.3674e-05 0 0 1.3674e-05 0 1.3674e-05)
(1.65132e-05 0 0 1.65132e-05 0 1.65132e-05)
(1.12786e-05 0 0 1.12786e-05 0 1.12786e-05)
(2.07952e-05 0 0 2.07952e-05 0 2.07952e-05)
(5.13833e-06 0 0 5.13833e-06 0 5.13833e-06)
(1.258e-05 0 0 1.258e-05 0 1.258e-05)
(2.05536e-06 0 0 2.05536e-06 0 2.05536e-06)
(5.05468e-06 0 0 5.05468e-06 0 5.05468e-06)
(9.13675e-07 0 0 9.13675e-07 0 9.13675e-07)
(2.05842e-06 0 0 2.05842e-06 0 2.05842e-06)
(4.45792e-07 0 0 4.45792e-07 0 4.45792e-07)
(1.00085e-06 0 0 1.00085e-06 0 1.00085e-06)
(2.25914e-07 0 0 2.25914e-07 0 2.25914e-07)
(5.16831e-07 0 0 5.16831e-07 0 5.16831e-07)
(1.30796e-07 0 0 1.30796e-07 0 1.30796e-07)
(2.57795e-07 0 0 2.57795e-07 0 2.57795e-07)
(1.0565e-07 0 0 1.0565e-07 0 1.0565e-07)
(1.414e-07 0 0 1.414e-07 0 1.414e-07)
(1.32815e-07 0 0 1.32815e-07 0 1.32815e-07)
(1.09441e-07 0 0 1.09441e-07 0 1.09441e-07)
(2.5008e-07 0 0 2.5008e-07 0 2.5008e-07)
(1.41614e-07 0 0 1.41614e-07 0 1.41614e-07)
(5.49265e-07 0 0 5.49265e-07 0 5.49265e-07)
(2.77755e-07 0 0 2.77755e-07 0 2.77755e-07)
(9.73633e-07 0 0 9.73633e-07 0 9.73633e-07)
(5.59424e-07 0 0 5.59424e-07 0 5.59424e-07)
(1.18881e-06 0 0 1.18881e-06 0 1.18881e-06)
(8.15596e-07 0 0 8.15596e-07 0 8.15596e-07)
(1.14455e-06 0 0 1.14455e-06 0 1.14455e-06)
(8.34039e-07 0 0 8.34039e-07 0 8.34039e-07)
(1.0401e-06 0 0 1.0401e-06 0 1.0401e-06)
(7.24549e-07 0 0 7.24549e-07 0 7.24549e-07)
(9.49479e-07 0 0 9.49479e-07 0 9.49479e-07)
(6.22932e-07 0 0 6.22932e-07 0 6.22932e-07)
(8.5736e-07 0 0 8.5736e-07 0 8.5736e-07)
(5.38091e-07 0 0 5.38091e-07 0 5.38091e-07)
(7.834e-07 0 0 7.834e-07 0 7.834e-07)
(4.7217e-07 0 0 4.7217e-07 0 4.7217e-07)
(8.01025e-07 0 0 8.01025e-07 0 8.01025e-07)
(4.85956e-07 0 0 4.85956e-07 0 4.85956e-07)
(1.00944e-06 0 0 1.00944e-06 0 1.00944e-06)
(7.00625e-07 0 0 7.00625e-07 0 7.00625e-07)
(1.57718e-06 0 0 1.57718e-06 0 1.57718e-06)
(1.38228e-06 0 0 1.38228e-06 0 1.38228e-06)
(2.6876e-06 0 0 2.6876e-06 0 2.6876e-06)
(2.94724e-06 0 0 2.94724e-06 0 2.94724e-06)
(3.92028e-06 0 0 3.92028e-06 0 3.92028e-06)
(5.21791e-06 0 0 5.21791e-06 0 5.21791e-06)
(3.93687e-06 0 0 3.93687e-06 0 3.93687e-06)
(6.21723e-06 0 0 6.21723e-06 0 6.21723e-06)
(2.68561e-06 0 0 2.68561e-06 0 2.68561e-06)
(4.55626e-06 0 0 4.55626e-06 0 4.55626e-06)
(1.55773e-06 0 0 1.55773e-06 0 1.55773e-06)
(2.28749e-06 0 0 2.28749e-06 0 2.28749e-06)
(1.03874e-06 0 0 1.03874e-06 0 1.03874e-06)
(1.04199e-06 0 0 1.04199e-06 0 1.04199e-06)
(9.63324e-07 0 0 9.63324e-07 0 9.63324e-07)
(6.04232e-07 0 0 6.04232e-07 0 6.04232e-07)
(1.26283e-06 0 0 1.26283e-06 0 1.26283e-06)
(5.83162e-07 0 0 5.83162e-07 0 5.83162e-07)
(1.94679e-06 0 0 1.94679e-06 0 1.94679e-06)
(9.63064e-07 0 0 9.63064e-07 0 9.63064e-07)
(2.34669e-06 0 0 2.34669e-06 0 2.34669e-06)
(1.87898e-06 0 0 1.87898e-06 0 1.87898e-06)
(1.54466e-06 0 0 1.54466e-06 0 1.54466e-06)
(2.35693e-06 0 0 2.35693e-06 0 2.35693e-06)
(6.15899e-07 0 0 6.15899e-07 0 6.15899e-07)
(1.38554e-06 0 0 1.38554e-06 0 1.38554e-06)
(2.31351e-07 0 0 2.31351e-07 0 2.31351e-07)
(4.73787e-07 0 0 4.73787e-07 0 4.73787e-07)
(1.14744e-07 0 0 1.14744e-07 0 1.14744e-07)
(1.52887e-07 0 0 1.52887e-07 0 1.52887e-07)
(8.22345e-08 0 0 8.22345e-08 0 8.22345e-08)
(7.29612e-08 0 0 7.29612e-08 0 7.29612e-08)
(8.16752e-08 0 0 8.16752e-08 0 8.16752e-08)
(6.0164e-08 0 0 6.0164e-08 0 6.0164e-08)
(1.06258e-07 0 0 1.06258e-07 0 1.06258e-07)
(7.17124e-08 0 0 7.17124e-08 0 7.17124e-08)
(1.81407e-07 0 0 1.81407e-07 0 1.81407e-07)
(1.03289e-07 0 0 1.03289e-07 0 1.03289e-07)
(4.15346e-07 0 0 4.15346e-07 0 4.15346e-07)
(1.86801e-07 0 0 1.86801e-07 0 1.86801e-07)
(1.14633e-06 0 0 1.14633e-06 0 1.14633e-06)
(4.77984e-07 0 0 4.77984e-07 0 4.77984e-07)
(2.56998e-06 0 0 2.56998e-06 0 2.56998e-06)
(1.52422e-06 0 0 1.52422e-06 0 1.52422e-06)
(2.83229e-06 0 0 2.83229e-06 0 2.83229e-06)
(3.4862e-06 0 0 3.4862e-06 0 3.4862e-06)
(1.6031e-06 0 0 1.6031e-06 0 1.6031e-06)
(3.44878e-06 0 0 3.44878e-06 0 3.44878e-06)
(8.72999e-07 0 0 8.72999e-07 0 8.72999e-07)
(1.82321e-06 0 0 1.82321e-06 0 1.82321e-06)
(7.29979e-07 0 0 7.29979e-07 0 7.29979e-07)
(1.02567e-06 0 0 1.02567e-06 0 1.02567e-06)
(1.02309e-06 0 0 1.02309e-06 0 1.02309e-06)
(9.98706e-07 0 0 9.98706e-07 0 9.98706e-07)
(2.01525e-06 0 0 2.01525e-06 0 2.01525e-06)
(1.65221e-06 0 0 1.65221e-06 0 1.65221e-06)
(3.4275e-06 0 0 3.4275e-06 0 3.4275e-06)
(3.16775e-06 0 0 3.16775e-06 0 3.16775e-06)
(3.51518e-06 0 0 3.51518e-06 0 3.51518e-06)
(4.5559e-06 0 0 4.5559e-06 0 4.5559e-06)
(2.52223e-06 0 0 2.52223e-06 0 2.52223e-06)
(4.24321e-06 0 0 4.24321e-06 0 4.24321e-06)
(1.72332e-06 0 0 1.72332e-06 0 1.72332e-06)
(3.13735e-06 0 0 3.13735e-06 0 3.13735e-06)
(1.26597e-06 0 0 1.26597e-06 0 1.26597e-06)
(2.35533e-06 0 0 2.35533e-06 0 2.35533e-06)
(9.73882e-07 0 0 9.73882e-07 0 9.73882e-07)
(1.87383e-06 0 0 1.87383e-06 0 1.87383e-06)
(7.87445e-07 0 0 7.87445e-07 0 7.87445e-07)
(1.4904e-06 0 0 1.4904e-06 0 1.4904e-06)
(7.42669e-07 0 0 7.42669e-07 0 7.42669e-07)
(1.25444e-06 0 0 1.25444e-06 0 1.25444e-06)
(8.75449e-07 0 0 8.75449e-07 0 8.75449e-07)
(1.30198e-06 0 0 1.30198e-06 0 1.30198e-06)
(1.16538e-06 0 0 1.16538e-06 0 1.16538e-06)
(1.67901e-06 0 0 1.67901e-06 0 1.67901e-06)
(1.31437e-06 0 0 1.31437e-06 0 1.31437e-06)
(2.10663e-06 0 0 2.10663e-06 0 2.10663e-06)
(1.05883e-06 0 0 1.05883e-06 0 1.05883e-06)
(1.97661e-06 0 0 1.97661e-06 0 1.97661e-06)
(7.86576e-07 0 0 7.86576e-07 0 7.86576e-07)
(1.43098e-06 0 0 1.43098e-06 0 1.43098e-06)
(7.69691e-07 0 0 7.69691e-07 0 7.69691e-07)
(1.13523e-06 0 0 1.13523e-06 0 1.13523e-06)
(1.10314e-06 0 0 1.10314e-06 0 1.10314e-06)
(1.35773e-06 0 0 1.35773e-06 0 1.35773e-06)
(1.8815e-06 0 0 1.8815e-06 0 1.8815e-06)
(2.098e-06 0 0 2.098e-06 0 2.098e-06)
(2.26402e-06 0 0 2.26402e-06 0 2.26402e-06)
(2.26967e-06 0 0 2.26967e-06 0 2.26967e-06)
(1.51901e-06 0 0 1.51901e-06 0 1.51901e-06)
(1.18902e-06 0 0 1.18902e-06 0 1.18902e-06)
(8.73604e-07 0 0 8.73604e-07 0 8.73604e-07)
(4.65718e-07 0 0 4.65718e-07 0 4.65718e-07)
(6.71398e-07 0 0 6.71398e-07 0 6.71398e-07)
(2.87584e-07 0 0 2.87584e-07 0 2.87584e-07)
(7.44255e-07 0 0 7.44255e-07 0 7.44255e-07)
(3.79651e-07 0 0 3.79651e-07 0 3.79651e-07)
(9.60196e-07 0 0 9.60196e-07 0 9.60196e-07)
(7.40925e-07 0 0 7.40925e-07 0 7.40925e-07)
(1.02122e-06 0 0 1.02122e-06 0 1.02122e-06)
(1.17063e-06 0 0 1.17063e-06 0 1.17063e-06)
(8.97419e-07 0 0 8.97419e-07 0 8.97419e-07)
(1.18891e-06 0 0 1.18891e-06 0 1.18891e-06)
(8.91957e-07 0 0 8.91957e-07 0 8.91957e-07)
(1.03752e-06 0 0 1.03752e-06 0 1.03752e-06)
(1.16927e-06 0 0 1.16927e-06 0 1.16927e-06)
(1.18999e-06 0 0 1.18999e-06 0 1.18999e-06)
(1.66519e-06 0 0 1.66519e-06 0 1.66519e-06)
(1.85588e-06 0 0 1.85588e-06 0 1.85588e-06)
(1.47617e-06 0 0 1.47617e-06 0 1.47617e-06)
(2.47355e-06 0 0 2.47355e-06 0 2.47355e-06)
(6.31682e-07 0 0 6.31682e-07 0 6.31682e-07)
(1.71689e-06 0 0 1.71689e-06 0 1.71689e-06)
(2.31289e-07 0 0 2.31289e-07 0 2.31289e-07)
(6.49419e-07 0 0 6.49419e-07 0 6.49419e-07)
(1.36952e-07 0 0 1.36952e-07 0 1.36952e-07)
(2.517e-07 0 0 2.517e-07 0 2.517e-07)
(1.52983e-07 0 0 1.52983e-07 0 1.52983e-07)
(1.93776e-07 0 0 1.93776e-07 0 1.93776e-07)
(2.98247e-07 0 0 2.98247e-07 0 2.98247e-07)
(3.31652e-07 0 0 3.31652e-07 0 3.31652e-07)
(6.88862e-07 0 0 6.88862e-07 0 6.88862e-07)
(7.8829e-07 0 0 7.8829e-07 0 7.8829e-07)
(1.16053e-06 0 0 1.16053e-06 0 1.16053e-06)
(1.48379e-06 0 0 1.48379e-06 0 1.48379e-06)
(1.35814e-06 0 0 1.35814e-06 0 1.35814e-06)
(1.87776e-06 0 0 1.87776e-06 0 1.87776e-06)
(1.43578e-06 0 0 1.43578e-06 0 1.43578e-06)
(2.03393e-06 0 0 2.03393e-06 0 2.03393e-06)
(1.58819e-06 0 0 1.58819e-06 0 1.58819e-06)
(2.39259e-06 0 0 2.39259e-06 0 2.39259e-06)
(1.68723e-06 0 0 1.68723e-06 0 1.68723e-06)
(2.91324e-06 0 0 2.91324e-06 0 2.91324e-06)
(1.41724e-06 0 0 1.41724e-06 0 1.41724e-06)
(2.91927e-06 0 0 2.91927e-06 0 2.91927e-06)
(8.9982e-07 0 0 8.9982e-07 0 8.9982e-07)
(2.03379e-06 0 0 2.03379e-06 0 2.03379e-06)
(5.16848e-07 0 0 5.16848e-07 0 5.16848e-07)
(1.02846e-06 0 0 1.02846e-06 0 1.02846e-06)
(3.32407e-07 0 0 3.32407e-07 0 3.32407e-07)
(5.01739e-07 0 0 5.01739e-07 0 5.01739e-07)
(2.67422e-07 0 0 2.67422e-07 0 2.67422e-07)
(3.44275e-07 0 0 3.44275e-07 0 3.44275e-07)
(2.75029e-07 0 0 2.75029e-07 0 2.75029e-07)
(3.62326e-07 0 0 3.62326e-07 0 3.62326e-07)
(3.55757e-07 0 0 3.55757e-07 0 3.55757e-07)
(4.87046e-07 0 0 4.87046e-07 0 4.87046e-07)
(5.62425e-07 0 0 5.62425e-07 0 5.62425e-07)
(7.56536e-07 0 0 7.56536e-07 0 7.56536e-07)
(1.02403e-06 0 0 1.02403e-06 0 1.02403e-06)
(1.32039e-06 0 0 1.32039e-06 0 1.32039e-06)
(1.88236e-06 0 0 1.88236e-06 0 1.88236e-06)
(2.34288e-06 0 0 2.34288e-06 0 2.34288e-06)
(2.86622e-06 0 0 2.86622e-06 0 2.86622e-06)
(3.63385e-06 0 0 3.63385e-06 0 3.63385e-06)
(3.13069e-06 0 0 3.13069e-06 0 3.13069e-06)
(4.53516e-06 0 0 4.53516e-06 0 4.53516e-06)
(2.59743e-06 0 0 2.59743e-06 0 2.59743e-06)
(4.53457e-06 0 0 4.53457e-06 0 4.53457e-06)
(2.04462e-06 0 0 2.04462e-06 0 2.04462e-06)
(3.85661e-06 0 0 3.85661e-06 0 3.85661e-06)
(1.85814e-06 0 0 1.85814e-06 0 1.85814e-06)
(3.3174e-06 0 0 3.3174e-06 0 3.3174e-06)
(2.04085e-06 0 0 2.04085e-06 0 2.04085e-06)
(3.39633e-06 0 0 3.39633e-06 0 3.39633e-06)
(2.38522e-06 0 0 2.38522e-06 0 2.38522e-06)
(3.94268e-06 0 0 3.94268e-06 0 3.94268e-06)
(2.32337e-06 0 0 2.32337e-06 0 2.32337e-06)
(4.01156e-06 0 0 4.01156e-06 0 4.01156e-06)
(1.64144e-06 0 0 1.64144e-06 0 1.64144e-06)
(2.87271e-06 0 0 2.87271e-06 0 2.87271e-06)
(9.81547e-07 0 0 9.81547e-07 0 9.81547e-07)
(1.58754e-06 0 0 1.58754e-06 0 1.58754e-06)
(6.64613e-07 0 0 6.64613e-07 0 6.64613e-07)
(9.26251e-07 0 0 9.26251e-07 0 9.26251e-07)
(6.00349e-07 0 0 6.00349e-07 0 6.00349e-07)
(7.33362e-07 0 0 7.33362e-07 0 7.33362e-07)
(7.04346e-07 0 0 7.04346e-07 0 7.04346e-07)
(8.23451e-07 0 0 8.23451e-07 0 8.23451e-07)
(8.90773e-07 0 0 8.90773e-07 0 8.90773e-07)
(1.09689e-06 0 0 1.09689e-06 0 1.09689e-06)
(9.89286e-07 0 0 9.89286e-07 0 9.89286e-07)
(1.33743e-06 0 0 1.33743e-06 0 1.33743e-06)
(9.77136e-07 0 0 9.77136e-07 0 9.77136e-07)
(1.33226e-06 0 0 1.33226e-06 0 1.33226e-06)
(1.05564e-06 0 0 1.05564e-06 0 1.05564e-06)
(1.23364e-06 0 0 1.23364e-06 0 1.23364e-06)
(1.47797e-06 0 0 1.47797e-06 0 1.47797e-06)
(1.35553e-06 0 0 1.35553e-06 0 1.35553e-06)
(2.72558e-06 0 0 2.72558e-06 0 2.72558e-06)
(2.03592e-06 0 0 2.03592e-06 0 2.03592e-06)
(5.58052e-06 0 0 5.58052e-06 0 5.58052e-06)
(3.8972e-06 0 0 3.8972e-06 0 3.8972e-06)
(9.4658e-06 0 0 9.4658e-06 0 9.4658e-06)
(7.42869e-06 0 0 7.42869e-06 0 7.42869e-06)
(1.08496e-05 0 0 1.08496e-05 0 1.08496e-05)
(1.0735e-05 0 0 1.0735e-05 0 1.0735e-05)
(8.64707e-06 0 0 8.64707e-06 0 8.64707e-06)
(1.05501e-05 0 0 1.05501e-05 0 1.05501e-05)
(5.77875e-06 0 0 5.77875e-06 0 5.77875e-06)
(7.8874e-06 0 0 7.8874e-06 0 7.8874e-06)
(3.92592e-06 0 0 3.92592e-06 0 3.92592e-06)
(5.58147e-06 0 0 5.58147e-06 0 5.58147e-06)
(3.01214e-06 0 0 3.01214e-06 0 3.01214e-06)
(4.39005e-06 0 0 4.39005e-06 0 4.39005e-06)
(2.57638e-06 0 0 2.57638e-06 0 2.57638e-06)
(3.92536e-06 0 0 3.92536e-06 0 3.92536e-06)
(2.17235e-06 0 0 2.17235e-06 0 2.17235e-06)
(3.61584e-06 0 0 3.61584e-06 0 3.61584e-06)
(1.54738e-06 0 0 1.54738e-06 0 1.54738e-06)
(2.92959e-06 0 0 2.92959e-06 0 2.92959e-06)
(9.15112e-07 0 0 9.15112e-07 0 9.15112e-07)
(1.90084e-06 0 0 1.90084e-06 0 1.90084e-06)
(5.40245e-07 0 0 5.40245e-07 0 5.40245e-07)
(1.06686e-06 0 0 1.06686e-06 0 1.06686e-06)
(3.92337e-07 0 0 3.92337e-07 0 3.92337e-07)
(6.37592e-07 0 0 6.37592e-07 0 6.37592e-07)
(3.70592e-07 0 0 3.70592e-07 0 3.70592e-07)
(4.72236e-07 0 0 4.72236e-07 0 4.72236e-07)
(4.00702e-07 0 0 4.00702e-07 0 4.00702e-07)
(3.98368e-07 0 0 3.98368e-07 0 3.98368e-07)
(3.85563e-07 0 0 3.85563e-07 0 3.85563e-07)
(3.15804e-07 0 0 3.15804e-07 0 3.15804e-07)
(2.89287e-07 0 0 2.89287e-07 0 2.89287e-07)
(2.35049e-07 0 0 2.35049e-07 0 2.35049e-07)
(1.9679e-07 0 0 1.9679e-07 0 1.9679e-07)
(1.84081e-07 0 0 1.84081e-07 0 1.84081e-07)
(1.50878e-07 0 0 1.50878e-07 0 1.50878e-07)
(1.59828e-07 0 0 1.59828e-07 0 1.59828e-07)
(1.37694e-07 0 0 1.37694e-07 0 1.37694e-07)
(1.54788e-07 0 0 1.54788e-07 0 1.54788e-07)
(1.32378e-07 0 0 1.32378e-07 0 1.32378e-07)
(1.55839e-07 0 0 1.55839e-07 0 1.55839e-07)
(1.1556e-07 0 0 1.1556e-07 0 1.1556e-07)
(1.42391e-07 0 0 1.42391e-07 0 1.42391e-07)
(9.92887e-08 0 0 9.92887e-08 0 9.92887e-08)
(1.20145e-07 0 0 1.20145e-07 0 1.20145e-07)
(1.1096e-07 0 0 1.1096e-07 0 1.1096e-07)
(1.20337e-07 0 0 1.20337e-07 0 1.20337e-07)
(1.99391e-07 0 0 1.99391e-07 0 1.99391e-07)
(1.95344e-07 0 0 1.95344e-07 0 1.95344e-07)
(6.16211e-07 0 0 6.16211e-07 0 6.16211e-07)
(5.84515e-07 0 0 5.84515e-07 0 5.84515e-07)
(2.60586e-06 0 0 2.60586e-06 0 2.60586e-06)
(2.5273e-06 0 0 2.5273e-06 0 2.5273e-06)
(8.37032e-06 0 0 8.37032e-06 0 8.37032e-06)
(9.10653e-06 0 0 9.10653e-06 0 9.10653e-06)
(1.14438e-05 0 0 1.14438e-05 0 1.14438e-05)
(1.64805e-05 0 0 1.64805e-05 0 1.64805e-05)
(6.66173e-06 0 0 6.66173e-06 0 6.66173e-06)
(1.33027e-05 0 0 1.33027e-05 0 1.33027e-05)
(2.88013e-06 0 0 2.88013e-06 0 2.88013e-06)
(6.41303e-06 0 0 6.41303e-06 0 6.41303e-06)
(1.58363e-06 0 0 1.58363e-06 0 1.58363e-06)
(2.92966e-06 0 0 2.92966e-06 0 2.92966e-06)
(1.39015e-06 0 0 1.39015e-06 0 1.39015e-06)
(1.90177e-06 0 0 1.90177e-06 0 1.90177e-06)
(1.92506e-06 0 0 1.92506e-06 0 1.92506e-06)
(2.01446e-06 0 0 2.01446e-06 0 2.01446e-06)
(3.39008e-06 0 0 3.39008e-06 0 3.39008e-06)
(2.67249e-06 0 0 2.67249e-06 0 2.67249e-06)
(4.97938e-06 0 0 4.97938e-06 0 4.97938e-06)
(3.01824e-06 0 0 3.01824e-06 0 3.01824e-06)
(4.56111e-06 0 0 4.56111e-06 0 4.56111e-06)
(2.79484e-06 0 0 2.79484e-06 0 2.79484e-06)
(3.01992e-06 0 0 3.01992e-06 0 3.01992e-06)
(2.5158e-06 0 0 2.5158e-06 0 2.5158e-06)
(2.02059e-06 0 0 2.02059e-06 0 2.02059e-06)
(2.37366e-06 0 0 2.37366e-06 0 2.37366e-06)
(1.59459e-06 0 0 1.59459e-06 0 1.59459e-06)
(2.34452e-06 0 0 2.34452e-06 0 2.34452e-06)
(1.35721e-06 0 0 1.35721e-06 0 1.35721e-06)
(2.39968e-06 0 0 2.39968e-06 0 2.39968e-06)
(9.96108e-07 0 0 9.96108e-07 0 9.96108e-07)
(2.20113e-06 0 0 2.20113e-06 0 2.20113e-06)
(5.83179e-07 0 0 5.83179e-07 0 5.83179e-07)
(1.51926e-06 0 0 1.51926e-06 0 1.51926e-06)
(3.415e-07 0 0 3.415e-07 0 3.415e-07)
(8.40369e-07 0 0 8.40369e-07 0 8.40369e-07)
(2.6363e-07 0 0 2.6363e-07 0 2.6363e-07)
(5.09758e-07 0 0 5.09758e-07 0 5.09758e-07)
(2.94748e-07 0 0 2.94748e-07 0 2.94748e-07)
(4.51658e-07 0 0 4.51658e-07 0 4.51658e-07)
(4.32214e-07 0 0 4.32214e-07 0 4.32214e-07)
(5.83295e-07 0 0 5.83295e-07 0 5.83295e-07)
(6.20655e-07 0 0 6.20655e-07 0 6.20655e-07)
(8.3789e-07 0 0 8.3789e-07 0 8.3789e-07)
(6.28636e-07 0 0 6.28636e-07 0 6.28636e-07)
(9.67387e-07 0 0 9.67387e-07 0 9.67387e-07)
(4.03091e-07 0 0 4.03091e-07 0 4.03091e-07)
(7.29689e-07 0 0 7.29689e-07 0 7.29689e-07)
(1.91294e-07 0 0 1.91294e-07 0 1.91294e-07)
(3.57961e-07 0 0 3.57961e-07 0 3.57961e-07)
(8.94924e-08 0 0 8.94924e-08 0 8.94924e-08)
(1.39438e-07 0 0 1.39438e-07 0 1.39438e-07)
(5.52135e-08 0 0 5.52135e-08 0 5.52135e-08)
(6.04496e-08 0 0 6.04496e-08 0 6.04496e-08)
(5.43955e-08 0 0 5.43955e-08 0 5.43955e-08)
(4.06785e-08 0 0 4.06785e-08 0 4.06785e-08)
(9.1906e-08 0 0 9.1906e-08 0 9.1906e-08)
(5.02556e-08 0 0 5.02556e-08 0 5.02556e-08)
(2.57469e-07 0 0 2.57469e-07 0 2.57469e-07)
(1.05249e-07 0 0 1.05249e-07 0 1.05249e-07)
(9.45094e-07 0 0 9.45094e-07 0 9.45094e-07)
(2.82469e-07 0 0 2.82469e-07 0 2.82469e-07)
(3.12743e-06 0 0 3.12743e-06 0 3.12743e-06)
(7.31842e-07 0 0 7.31842e-07 0 7.31842e-07)
(7.21238e-06 0 0 7.21238e-06 0 7.21238e-06)
(1.60657e-06 0 0 1.60657e-06 0 1.60657e-06)
(1.124e-05 0 0 1.124e-05 0 1.124e-05)
(3.02507e-06 0 0 3.02507e-06 0 3.02507e-06)
(1.23217e-05 0 0 1.23217e-05 0 1.23217e-05)
(5.15278e-06 0 0 5.15278e-06 0 5.15278e-06)
(9.28298e-06 0 0 9.28298e-06 0 9.28298e-06)
(7.64981e-06 0 0 7.64981e-06 0 7.64981e-06)
(4.86829e-06 0 0 4.86829e-06 0 4.86829e-06)
(8.11402e-06 0 0 8.11402e-06 0 8.11402e-06)
(2.18856e-06 0 0 2.18856e-06 0 2.18856e-06)
(5.25098e-06 0 0 5.25098e-06 0 5.25098e-06)
(1.15171e-06 0 0 1.15171e-06 0 1.15171e-06)
(2.59241e-06 0 0 2.59241e-06 0 2.59241e-06)
(8.56928e-07 0 0 8.56928e-07 0 8.56928e-07)
(1.44609e-06 0 0 1.44609e-06 0 1.44609e-06)
(9.17555e-07 0 0 9.17555e-07 0 9.17555e-07)
(1.03961e-06 0 0 1.03961e-06 0 1.03961e-06)
(1.29175e-06 0 0 1.29175e-06 0 1.29175e-06)
(8.49918e-07 0 0 8.49918e-07 0 8.49918e-07)
(9.22287e-07 0 0 9.22287e-07 0 9.22287e-07)
(2.08977e-06 0 0 2.08977e-06 0 2.08977e-06)
(1.17228e-06 0 0 1.17228e-06 0 1.17228e-06)
(8.67868e-06 0 0 8.67868e-06 0 8.67868e-06)
(4.22195e-06 0 0 4.22195e-06 0 4.22195e-06)
(3.50885e-05 0 0 3.50885e-05 0 3.50885e-05)
(1.48441e-05 0 0 1.48441e-05 0 1.48441e-05)
(5.71377e-05 0 0 5.71377e-05 0 5.71377e-05)
(2.43077e-05 0 0 2.43077e-05 0 2.43077e-05)
(2.4935e-05 0 0 2.4935e-05 0 2.4935e-05)
(1.41725e-05 0 0 1.41725e-05 0 1.41725e-05)
(5.60838e-06 0 0 5.60838e-06 0 5.60838e-06)
(4.23498e-06 0 0 4.23498e-06 0 4.23498e-06)
(1.513e-06 0 0 1.513e-06 0 1.513e-06)
(1.23928e-06 0 0 1.23928e-06 0 1.23928e-06)
(7.10613e-07 0 0 7.10613e-07 0 7.10613e-07)
(5.75559e-07 0 0 5.75559e-07 0 5.75559e-07)
(5.69326e-07 0 0 5.69326e-07 0 5.69326e-07)
(4.78081e-07 0 0 4.78081e-07 0 4.78081e-07)
(6.81545e-07 0 0 6.81545e-07 0 6.81545e-07)
(6.09522e-07 0 0 6.09522e-07 0 6.09522e-07)
(1.0551e-06 0 0 1.0551e-06 0 1.0551e-06)
(9.61509e-07 0 0 9.61509e-07 0 9.61509e-07)
(2.03738e-06 0 0 2.03738e-06 0 2.03738e-06)
(1.75512e-06 0 0 1.75512e-06 0 1.75512e-06)
(5.02644e-06 0 0 5.02644e-06 0 5.02644e-06)
(3.94114e-06 0 0 3.94114e-06 0 3.94114e-06)
(1.3966e-05 0 0 1.3966e-05 0 1.3966e-05)
(1.00875e-05 0 0 1.00875e-05 0 1.00875e-05)
(2.81578e-05 0 0 2.81578e-05 0 2.81578e-05)
(2.06236e-05 0 0 2.06236e-05 0 2.06236e-05)
(2.56967e-05 0 0 2.56967e-05 0 2.56967e-05)
(2.30321e-05 0 0 2.30321e-05 0 2.30321e-05)
(1.20902e-05 0 0 1.20902e-05 0 1.20902e-05)
(1.36802e-05 0 0 1.36802e-05 0 1.36802e-05)
(5.07319e-06 0 0 5.07319e-06 0 5.07319e-06)
(6.24298e-06 0 0 6.24298e-06 0 6.24298e-06)
(2.56095e-06 0 0 2.56095e-06 0 2.56095e-06)
(3.33913e-06 0 0 3.33913e-06 0 3.33913e-06)
(1.44756e-06 0 0 1.44756e-06 0 1.44756e-06)
(2.29878e-06 0 0 2.29878e-06 0 2.29878e-06)
(7.20739e-07 0 0 7.20739e-07 0 7.20739e-07)
(1.55128e-06 0 0 1.55128e-06 0 1.55128e-06)
(3.02505e-07 0 0 3.02505e-07 0 3.02505e-07)
(7.74777e-07 0 0 7.74777e-07 0 7.74777e-07)
(1.48275e-07 0 0 1.48275e-07 0 1.48275e-07)
(3.11553e-07 0 0 3.11553e-07 0 3.11553e-07)
(1.15346e-07 0 0 1.15346e-07 0 1.15346e-07)
(1.53498e-07 0 0 1.53498e-07 0 1.53498e-07)
(1.50082e-07 0 0 1.50082e-07 0 1.50082e-07)
(1.3144e-07 0 0 1.3144e-07 0 1.3144e-07)
(2.80329e-07 0 0 2.80329e-07 0 2.80329e-07)
(1.88664e-07 0 0 1.88664e-07 0 1.88664e-07)
(5.0338e-07 0 0 5.0338e-07 0 5.0338e-07)
(3.2068e-07 0 0 3.2068e-07 0 3.2068e-07)
(6.31352e-07 0 0 6.31352e-07 0 6.31352e-07)
(4.5377e-07 0 0 4.5377e-07 0 4.5377e-07)
(5.86355e-07 0 0 5.86355e-07 0 5.86355e-07)
(4.84253e-07 0 0 4.84253e-07 0 4.84253e-07)
(4.94062e-07 0 0 4.94062e-07 0 4.94062e-07)
(4.48253e-07 0 0 4.48253e-07 0 4.48253e-07)
(4.14847e-07 0 0 4.14847e-07 0 4.14847e-07)
(4.16052e-07 0 0 4.16052e-07 0 4.16052e-07)
(3.55881e-07 0 0 3.55881e-07 0 3.55881e-07)
(3.93176e-07 0 0 3.93176e-07 0 3.93176e-07)
(3.44924e-07 0 0 3.44924e-07 0 3.44924e-07)
(3.79392e-07 0 0 3.79392e-07 0 3.79392e-07)
(4.47088e-07 0 0 4.47088e-07 0 4.47088e-07)
(4.34205e-07 0 0 4.34205e-07 0 4.34205e-07)
(8.62006e-07 0 0 8.62006e-07 0 8.62006e-07)
(7.34057e-07 0 0 7.34057e-07 0 7.34057e-07)
(2.33263e-06 0 0 2.33263e-06 0 2.33263e-06)
(1.87998e-06 0 0 1.87998e-06 0 1.87998e-06)
(6.29446e-06 0 0 6.29446e-06 0 6.29446e-06)
(5.40883e-06 0 0 5.40883e-06 0 5.40883e-06)
(1.02662e-05 0 0 1.02662e-05 0 1.02662e-05)
(1.11325e-05 0 0 1.11325e-05 0 1.11325e-05)
(7.91686e-06 0 0 7.91686e-06 0 7.91686e-06)
(1.21786e-05 0 0 1.21786e-05 0 1.21786e-05)
(3.51762e-06 0 0 3.51762e-06 0 3.51762e-06)
(7.18732e-06 0 0 7.18732e-06 0 7.18732e-06)
(1.32468e-06 0 0 1.32468e-06 0 1.32468e-06)
(2.92153e-06 0 0 2.92153e-06 0 2.92153e-06)
(6.05332e-07 0 0 6.05332e-07 0 6.05332e-07)
(1.11781e-06 0 0 1.11781e-06 0 1.11781e-06)
(4.2887e-07 0 0 4.2887e-07 0 4.2887e-07)
(5.43578e-07 0 0 5.43578e-07 0 5.43578e-07)
(5.09874e-07 0 0 5.09874e-07 0 5.09874e-07)
(4.20732e-07 0 0 4.20732e-07 0 4.20732e-07)
(9.46173e-07 0 0 9.46173e-07 0 9.46173e-07)
(5.25914e-07 0 0 5.25914e-07 0 5.25914e-07)
(1.88554e-06 0 0 1.88554e-06 0 1.88554e-06)
(8.37385e-07 0 0 8.37385e-07 0 8.37385e-07)
(2.00549e-06 0 0 2.00549e-06 0 2.00549e-06)
(1.16744e-06 0 0 1.16744e-06 0 1.16744e-06)
(8.27298e-07 0 0 8.27298e-07 0 8.27298e-07)
(9.96756e-07 0 0 9.96756e-07 0 9.96756e-07)
(2.31e-07 0 0 2.31e-07 0 2.31e-07)
(4.75369e-07 0 0 4.75369e-07 0 4.75369e-07)
(8.67177e-08 0 0 8.67177e-08 0 8.67177e-08)
(1.77561e-07 0 0 1.77561e-07 0 1.77561e-07)
(5.50455e-08 0 0 5.50455e-08 0 5.50455e-08)
(8.99865e-08 0 0 8.99865e-08 0 8.99865e-08)
(5.45786e-08 0 0 5.45786e-08 0 5.45786e-08)
(7.89824e-08 0 0 7.89824e-08 0 7.89824e-08)
(7.03476e-08 0 0 7.03476e-08 0 7.03476e-08)
(9.76031e-08 0 0 9.76031e-08 0 9.76031e-08)
(1.05015e-07 0 0 1.05015e-07 0 1.05015e-07)
(1.28434e-07 0 0 1.28434e-07 0 1.28434e-07)
(1.985e-07 0 0 1.985e-07 0 1.985e-07)
(1.75992e-07 0 0 1.75992e-07 0 1.75992e-07)
(5.33095e-07 0 0 5.33095e-07 0 5.33095e-07)
(2.94269e-07 0 0 2.94269e-07 0 2.94269e-07)
(1.80568e-06 0 0 1.80568e-06 0 1.80568e-06)
(7.04691e-07 0 0 7.04691e-07 0 7.04691e-07)
(4.46965e-06 0 0 4.46965e-06 0 4.46965e-06)
(2.17274e-06 0 0 2.17274e-06 0 2.17274e-06)
(4.65874e-06 0 0 4.65874e-06 0 4.65874e-06)
(4.87659e-06 0 0 4.87659e-06 0 4.87659e-06)
(2.64563e-06 0 0 2.64563e-06 0 2.64563e-06)
(4.83491e-06 0 0 4.83491e-06 0 4.83491e-06)
(1.64916e-06 0 0 1.64916e-06 0 1.64916e-06)
(2.80511e-06 0 0 2.80511e-06 0 2.80511e-06)
(1.58954e-06 0 0 1.58954e-06 0 1.58954e-06)
(1.91953e-06 0 0 1.91953e-06 0 1.91953e-06)
(2.35451e-06 0 0 2.35451e-06 0 2.35451e-06)
(2.15147e-06 0 0 2.15147e-06 0 2.15147e-06)
(4.10813e-06 0 0 4.10813e-06 0 4.10813e-06)
(3.36516e-06 0 0 3.36516e-06 0 3.36516e-06)
(5.85873e-06 0 0 5.85873e-06 0 5.85873e-06)
(5.15657e-06 0 0 5.15657e-06 0 5.15657e-06)
(6.33164e-06 0 0 6.33164e-06 0 6.33164e-06)
(6.05394e-06 0 0 6.05394e-06 0 6.05394e-06)
(6.13367e-06 0 0 6.13367e-06 0 6.13367e-06)
(5.66966e-06 0 0 5.66966e-06 0 5.66966e-06)
(5.94073e-06 0 0 5.94073e-06 0 5.94073e-06)
(5.19229e-06 0 0 5.19229e-06 0 5.19229e-06)
(5.62393e-06 0 0 5.62393e-06 0 5.62393e-06)
(5.27099e-06 0 0 5.27099e-06 0 5.27099e-06)
(5.0454e-06 0 0 5.0454e-06 0 5.0454e-06)
(5.59588e-06 0 0 5.59588e-06 0 5.59588e-06)
(4.57175e-06 0 0 4.57175e-06 0 4.57175e-06)
(5.57384e-06 0 0 5.57384e-06 0 5.57384e-06)
(4.51715e-06 0 0 4.51715e-06 0 4.51715e-06)
(5.32545e-06 0 0 5.32545e-06 0 5.32545e-06)
(4.71272e-06 0 0 4.71272e-06 0 4.71272e-06)
(5.18941e-06 0 0 5.18941e-06 0 5.18941e-06)
(4.54989e-06 0 0 4.54989e-06 0 4.54989e-06)
(5.12681e-06 0 0 5.12681e-06 0 5.12681e-06)
(3.84171e-06 0 0 3.84171e-06 0 3.84171e-06)
(4.96483e-06 0 0 4.96483e-06 0 4.96483e-06)
(3.24284e-06 0 0 3.24284e-06 0 3.24284e-06)
(4.55642e-06 0 0 4.55642e-06 0 4.55642e-06)
(3.14284e-06 0 0 3.14284e-06 0 3.14284e-06)
(4.20004e-06 0 0 4.20004e-06 0 4.20004e-06)
(3.26083e-06 0 0 3.26083e-06 0 3.26083e-06)
(3.9479e-06 0 0 3.9479e-06 0 3.9479e-06)
(2.59237e-06 0 0 2.59237e-06 0 2.59237e-06)
(2.93659e-06 0 0 2.93659e-06 0 2.93659e-06)
(1.19058e-06 0 0 1.19058e-06 0 1.19058e-06)
(1.47491e-06 0 0 1.47491e-06 0 1.47491e-06)
(4.29199e-07 0 0 4.29199e-07 0 4.29199e-07)
(6.2789e-07 0 0 6.2789e-07 0 6.2789e-07)
(2.23225e-07 0 0 2.23225e-07 0 2.23225e-07)
(3.0743e-07 0 0 3.0743e-07 0 3.0743e-07)
(2.16365e-07 0 0 2.16365e-07 0 2.16365e-07)
(2.36778e-07 0 0 2.36778e-07 0 2.36778e-07)
(3.78782e-07 0 0 3.78782e-07 0 3.78782e-07)
(3.49001e-07 0 0 3.49001e-07 0 3.49001e-07)
(8.60252e-07 0 0 8.60252e-07 0 8.60252e-07)
(7.01581e-07 0 0 7.01581e-07 0 7.01581e-07)
(1.3964e-06 0 0 1.3964e-06 0 1.3964e-06)
(1.13572e-06 0 0 1.13572e-06 0 1.13572e-06)
(1.44794e-06 0 0 1.44794e-06 0 1.44794e-06)
(1.36751e-06 0 0 1.36751e-06 0 1.36751e-06)
(1.46402e-06 0 0 1.46402e-06 0 1.46402e-06)
(1.56558e-06 0 0 1.56558e-06 0 1.56558e-06)
(1.90862e-06 0 0 1.90862e-06 0 1.90862e-06)
(2.1667e-06 0 0 2.1667e-06 0 2.1667e-06)
(2.91908e-06 0 0 2.91908e-06 0 2.91908e-06)
(3.71032e-06 0 0 3.71032e-06 0 3.71032e-06)
(3.23316e-06 0 0 3.23316e-06 0 3.23316e-06)
(5.44031e-06 0 0 5.44031e-06 0 5.44031e-06)
(1.85456e-06 0 0 1.85456e-06 0 1.85456e-06)
(4.47896e-06 0 0 4.47896e-06 0 4.47896e-06)
(8.40879e-07 0 0 8.40879e-07 0 8.40879e-07)
(2.17239e-06 0 0 2.17239e-06 0 2.17239e-06)
(5.4592e-07 0 0 5.4592e-07 0 5.4592e-07)
(1.05413e-06 0 0 1.05413e-06 0 1.05413e-06)
(6.10069e-07 0 0 6.10069e-07 0 6.10069e-07)
(8.93835e-07 0 0 8.93835e-07 0 8.93835e-07)
(1.07429e-06 0 0 1.07429e-06 0 1.07429e-06)
(1.44864e-06 0 0 1.44864e-06 0 1.44864e-06)
(2.03728e-06 0 0 2.03728e-06 0 2.03728e-06)
(2.86506e-06 0 0 2.86506e-06 0 2.86506e-06)
(2.90004e-06 0 0 2.90004e-06 0 2.90004e-06)
(4.09186e-06 0 0 4.09186e-06 0 4.09186e-06)
(3.47334e-06 0 0 3.47334e-06 0 3.47334e-06)
(3.90878e-06 0 0 3.90878e-06 0 3.90878e-06)
(4.69197e-06 0 0 4.69197e-06 0 4.69197e-06)
(3.92062e-06 0 0 3.92062e-06 0 3.92062e-06)
(7.60065e-06 0 0 7.60065e-06 0 7.60065e-06)
(6.18072e-06 0 0 6.18072e-06 0 6.18072e-06)
(1.07384e-05 0 0 1.07384e-05 0 1.07384e-05)
(1.21097e-05 0 0 1.21097e-05 0 1.21097e-05)
(7.77315e-06 0 0 7.77315e-06 0 7.77315e-06)
(1.52408e-05 0 0 1.52408e-05 0 1.52408e-05)
(2.83538e-06 0 0 2.83538e-06 0 2.83538e-06)
(8.31402e-06 0 0 8.31402e-06 0 8.31402e-06)
(9.70317e-07 0 0 9.70317e-07 0 9.70317e-07)
(2.47003e-06 0 0 2.47003e-06 0 2.47003e-06)
(5.29278e-07 0 0 5.29278e-07 0 5.29278e-07)
(7.88647e-07 0 0 7.88647e-07 0 7.88647e-07)
(5.19429e-07 0 0 5.19429e-07 0 5.19429e-07)
(5.25557e-07 0 0 5.25557e-07 0 5.25557e-07)
(8.49505e-07 0 0 8.49505e-07 0 8.49505e-07)
(8.39688e-07 0 0 8.39688e-07 0 8.39688e-07)
(1.77274e-06 0 0 1.77274e-06 0 1.77274e-06)
(2.04294e-06 0 0 2.04294e-06 0 2.04294e-06)
(3.32058e-06 0 0 3.32058e-06 0 3.32058e-06)
(4.46546e-06 0 0 4.46546e-06 0 4.46546e-06)
(4.81589e-06 0 0 4.81589e-06 0 4.81589e-06)
(6.89236e-06 0 0 6.89236e-06 0 6.89236e-06)
(5.85592e-06 0 0 5.85592e-06 0 5.85592e-06)
(7.40367e-06 0 0 7.40367e-06 0 7.40367e-06)
(6.81206e-06 0 0 6.81206e-06 0 6.81206e-06)
(6.10112e-06 0 0 6.10112e-06 0 6.10112e-06)
(8.22303e-06 0 0 8.22303e-06 0 8.22303e-06)
(4.99121e-06 0 0 4.99121e-06 0 4.99121e-06)
(1.05455e-05 0 0 1.05455e-05 0 1.05455e-05)
(5.27081e-06 0 0 5.27081e-06 0 5.27081e-06)
(1.39572e-05 0 0 1.39572e-05 0 1.39572e-05)
(7.15321e-06 0 0 7.15321e-06 0 7.15321e-06)
(1.73298e-05 0 0 1.73298e-05 0 1.73298e-05)
(1.01472e-05 0 0 1.01472e-05 0 1.01472e-05)
(1.7218e-05 0 0 1.7218e-05 0 1.7218e-05)
(1.19697e-05 0 0 1.19697e-05 0 1.19697e-05)
(1.19524e-05 0 0 1.19524e-05 0 1.19524e-05)
(1.0161e-05 0 0 1.0161e-05 0 1.0161e-05)
(5.98896e-06 0 0 5.98896e-06 0 5.98896e-06)
(6.17345e-06 0 0 6.17345e-06 0 6.17345e-06)
(2.71157e-06 0 0 2.71157e-06 0 2.71157e-06)
(3.05475e-06 0 0 3.05475e-06 0 3.05475e-06)
(1.44775e-06 0 0 1.44775e-06 0 1.44775e-06)
(1.50182e-06 0 0 1.50182e-06 0 1.50182e-06)
(1.06545e-06 0 0 1.06545e-06 0 1.06545e-06)
(8.88321e-07 0 0 8.88321e-07 0 8.88321e-07)
(1.09615e-06 0 0 1.09615e-06 0 1.09615e-06)
(7.0449e-07 0 0 7.0449e-07 0 7.0449e-07)
(1.41579e-06 0 0 1.41579e-06 0 1.41579e-06)
(7.46879e-07 0 0 7.46879e-07 0 7.46879e-07)
(1.86304e-06 0 0 1.86304e-06 0 1.86304e-06)
(9.89774e-07 0 0 9.89774e-07 0 9.89774e-07)
(2.05139e-06 0 0 2.05139e-06 0 2.05139e-06)
(1.45267e-06 0 0 1.45267e-06 0 1.45267e-06)
(1.85938e-06 0 0 1.85938e-06 0 1.85938e-06)
(1.95455e-06 0 0 1.95455e-06 0 1.95455e-06)
(1.66379e-06 0 0 1.66379e-06 0 1.66379e-06)
(2.15471e-06 0 0 2.15471e-06 0 2.15471e-06)
(1.81063e-06 0 0 1.81063e-06 0 1.81063e-06)
(2.25047e-06 0 0 2.25047e-06 0 2.25047e-06)
(2.62551e-06 0 0 2.62551e-06 0 2.62551e-06)
(2.78484e-06 0 0 2.78484e-06 0 2.78484e-06)
(4.7167e-06 0 0 4.7167e-06 0 4.7167e-06)
(4.16396e-06 0 0 4.16396e-06 0 4.16396e-06)
(8.18846e-06 0 0 8.18846e-06 0 8.18846e-06)
(6.37272e-06 0 0 6.37272e-06 0 6.37272e-06)
(1.04417e-05 0 0 1.04417e-05 0 1.04417e-05)
(8.46952e-06 0 0 8.46952e-06 0 8.46952e-06)
(9.4407e-06 0 0 9.4407e-06 0 9.4407e-06)
(8.91521e-06 0 0 8.91521e-06 0 8.91521e-06)
(7.52441e-06 0 0 7.52441e-06 0 7.52441e-06)