/*--------------------------------*- C++ -*----------------------------------*\
  =========                 |
  \\      /  F ield         | OpenFOAM: The Open Source CFD Toolbox
   \\    /   O peration     | Website:  https://openfoam.org
    \\  /    A nd           | Version:  8
     \\/     M anipulation  |
\*---------------------------------------------------------------------------*/
FoamFile
{
    version     2.0;
    format      ascii;
    class       volScalarField;
    location    "1";
    object      p_rgh;
}
// * * * * * * * * * * * * * * * * * * * * * * * * * * * * * * * * * * * * * //

dimensions      [1 -1 -2 0 0 0 0];

internalField   nonuniform List<scalar> 
20000
(
10032.2
10032
10031.7
10031.4
10031
10030.6
10030.1
10029.6
10029
10028.4
10028
10027.8
10027.7
10027.6
10027.5
10027.4
10027.4
10027.3
10027.2
10027.1
10026.9
10026.5
10025.8
10024.9
10024.1
10023.5
10023.2
10023
10022.9
10022.8
10022.7
10022.5
10022.2
10021.7
10020.8
10019.7
10018.4
10017.2
10016.2
10015.6
10015.1
10014.7
10014.3
10013.8
10013.2
10012.6
10012.1
10011.8
10011.6
10011.4
10011.2
10011
10010.6
10010.2
10009.9
10009.7
10009.7
10009.6
10009.4
10008.9
10007.3
10005
10003.5
10003.1
10003
10003
10003
10002.9
10002.9
10002.8
10002.7
10002.6
10002.2
10001.5
10000.1
9998.4
9996.65
9995.35
9994.69
9994.45
9994.39
9994.37
9994.35
9994.34
9994.33
9994.3
9994.24
9994.1
9993.85
9993.54
9993.25
9992.99
9992.69
9992.27
9991.64
9990.84
9990.2
9989.88
9989.73
9989.65
9989.54
9989.32
9988.89
9988.21
9987.38
9986.59
9985.97
9985.56
9985.26
9984.99
9984.68
9984.36
9984.02
9983.63
9983.21
9982.87
9982.63
9982.46
9982.3
9982.1
9981.8
9981.4
9980.97
9980.65
9980.45
9980.3
9980.14
9979.88
9979.45
9978.9
9978.41
9978.11
9977.97
9977.92
9977.91
9977.93
9977.95
9977.98
9978.01
9978.07
9978.22
9978.5
9978.84
9979.08
9979.22
9979.3
9979.35
9979.41
9979.5
9979.69
9980.02
9980.45
9980.84
9981.14
9981.35
9981.5
9981.61
9981.69
9981.75
9981.81
9981.93
9982.24
9982.81
9983.55
9984.38
9985.4
9986.85
9988.79
9990.82
9992.47
9993.73
9994.98
9996.68
9998.99
10001.3
10002.8
10003.6
10004
10004.3
10004.6
10005.1
10005.6
10006.1
10006.6
10006.9
10007.1
10007.2
10007.3
10007.6
10008.3
10010.2
10014.6
10020.9
10026.9
10031.3
10034.5
10037.1
10039.2
10041
10042.7
10032.3
10032
10031.6
10031.2
10030.7
10030.3
10030
10029.6
10029.1
10028.5
10028.1
10027.8
10027.7
10027.6
10027.6
10027.5
10027.4
10027.3
10027.2
10027.1
10026.9
10026.5
10025.9
10025
10024.2
10023.5
10023.2
10023
10022.9
10022.8
10022.6
10022.4
10022.1
10021.5
10020.7
10019.7
10018.4
10017.2
10016.2
10015.5
10015
10014.7
10014.4
10014
10013.5
10013
10012.4
10011.9
10011.6
10011.4
10011.2
10010.9
10010.6
10010.2
10009.9
10009.7
10009.6
10009.5
10009.3
10008.8
10007.3
10005.2
10003.7
10003.2
10003.1
10003
10003
10002.9
10002.9
10002.8
10002.7
10002.6
10002.4
10001.8
10000.6
9998.78
9996.79
9995.36
9994.69
9994.46
9994.4
9994.37
9994.36
9994.35
9994.33
9994.29
9994.2
9994.04
9993.79
9993.5
9993.19
9992.87
9992.52
9992.08
9991.52
9990.87
9990.29
9989.94
9989.76
9989.65
9989.53
9989.31
9988.92
9988.34
9987.6
9986.84
9986.15
9985.6
9985.18
9984.82
9984.49
9984.2
9983.95
9983.65
9983.29
9982.94
9982.66
9982.44
9982.25
9982.02
9981.7
9981.29
9980.88
9980.59
9980.41
9980.28
9980.13
9979.88
9979.42
9978.83
9978.32
9978.04
9977.94
9977.9
9977.9
9977.9
9977.93
9977.95
9977.99
9978.06
9978.22
9978.49
9978.82
9979.08
9979.23
9979.31
9979.36
9979.43
9979.54
9979.72
9979.99
9980.32
9980.66
9980.94
9981.16
9981.34
9981.49
9981.62
9981.73
9981.86
9982.09
9982.52
9983.13
9983.78
9984.49
9985.43
9986.8
9988.61
9990.53
9992.15
9993.48
9994.84
9996.65
9998.98
10001.2
10002.7
10003.5
10003.9
10004.3
10004.7
10005.1
10005.6
10006
10006.5
10006.8
10007
10007.2
10007.4
10007.7
10008.8
10011.7
10017
10022.9
10027.6
10030.8
10033.4
10035.8
10037.9
10039.6
10041
10032.4
10031.9
10031.4
10031
10030.5
10030.1
10029.8
10029.4
10029
10028.6
10028.2
10027.9
10027.8
10027.7
10027.6
10027.5
10027.4
10027.3
10027.2
10027.1
10026.8
10026.5
10025.9
10025.2
10024.5
10023.8
10023.3
10023
10022.8
10022.7
10022.5
10022.2
10021.8
10021.3
10020.6
10019.5
10018.2
10016.9
10015.9
10015.3
10014.8
10014.5
10014.3
10014.1
10013.9
10013.5
10012.9
10012.3
10011.8
10011.5
10011.1
10010.9
10010.6
10010.3
10010
10009.7
10009.6
10009.4
10009.1
10008.6
10007.4
10005.7
10004.2
10003.5
10003.3
10003.1
10003
10002.9
10002.8
10002.8
10002.7
10002.6
10002.4
10001.9
10000.9
9999.24
9997.28
9995.72
9994.89
9994.56
9994.45
9994.41
9994.38
9994.36
9994.32
9994.24
9994.1
9993.91
9993.68
9993.44
9993.17
9992.84
9992.44
9991.96
9991.39
9990.8
9990.31
9990
9989.81
9989.67
9989.52
9989.29
9988.98
9988.53
9987.93
9987.18
9986.33
9985.51
9984.9
9984.52
9984.25
9984.05
9983.87
9983.65
9983.35
9982.98
9982.62
9982.34
9982.12
9981.9
9981.59
9981.18
9980.78
9980.51
9980.36
9980.25
9980.11
9979.86
9979.42
9978.84
9978.32
9978.03
9977.92
9977.89
9977.88
9977.89
9977.89
9977.91
9977.94
9978
9978.12
9978.36
9978.7
9979.02
9979.21
9979.31
9979.38
9979.46
9979.58
9979.75
9979.96
9980.22
9980.51
9980.76
9980.95
9981.08
9981.21
9981.36
9981.56
9981.84
9982.26
9982.79
9983.37
9983.98
9984.69
9985.63
9986.92
9988.56
9990.3
9991.83
9993.15
9994.55
9996.42
9998.82
10001
10002.4
10003.2
10003.7
10004.2
10004.6
10005.1
10005.5
10005.9
10006.3
10006.7
10007
10007.3
10007.6
10008.2
10009.7
10012.9
10018
10023.4
10027.6
10030.6
10032.8
10034.6
10036.1
10037.3
10038.3
10032.4
10031.9
10031.4
10030.9
10030.4
10029.9
10029.5
10029.2
10028.9
10028.6
10028.3
10028
10027.8
10027.7
10027.6
10027.6
10027.4
10027.3
10027.1
10026.8
10026.6
10026.3
10025.9
10025.4
10024.8
10024.3
10023.7
10023.2
10022.7
10022.3
10022
10021.7
10021.4
10020.9
10020.2
10019
10017.5
10016.3
10015.4
10014.9
10014.6
10014.5
10014.3
10014.2
10014
10013.8
10013.3
10012.7
10012.1
10011.6
10011.2
10011
10010.7
10010.4
10010.1
10009.7
10009.4
10009.2
10008.9
10008.4
10007.3
10005.8
10004.5
10003.8
10003.5
10003.4
10003.2
10003.1
10002.9
10002.8
10002.6
10002.5
10002.2
10001.6
10000.6
9999.17
9997.61
9996.26
9995.33
9994.82
9994.59
9994.48
9994.43
9994.39
9994.33
9994.21
9994.03
9993.82
9993.6
9993.39
9993.16
9992.86
9992.47
9991.94
9991.32
9990.72
9990.29
9990.02
9989.84
9989.68
9989.49
9989.24
9988.96
9988.59
9988.06
9987.21
9986.07
9985.05
9984.48
9984.21
9984.05
9983.91
9983.77
9983.6
9983.36
9983
9982.6
9982.27
9982.03
9981.81
9981.52
9981.13
9980.74
9980.47
9980.32
9980.22
9980.08
9979.83
9979.41
9978.85
9978.32
9978.01
9977.89
9977.86
9977.86
9977.85
9977.86
9977.87
9977.89
9977.94
9978.02
9978.2
9978.52
9978.88
9979.14
9979.28
9979.38
9979.47
9979.59
9979.73
9979.9
9980.12
9980.37
9980.6
9980.73
9980.8
9980.86
9980.97
9981.19
9981.58
9982.12
9982.74
9983.37
9984.03
9984.77
9985.7
9986.91
9988.47
9990.22
9991.86
9993.32
9994.93
9997.08
9999.48
10001.2
10002.2
10002.8
10003.3
10003.9
10004.5
10005
10005.5
10005.9
10006.3
10006.8
10007.2
10007.6
10007.9
10008.4
10009.6
10012.2
10016.5
10021.6
10026.1
10029.1
10030.9
10032.1
10033.2
10034.4
10035.7
10032.6
10032
10031.5
10030.9
10030.2
10029.7
10029.2
10029
10028.8
10028.6
10028.4
10028.2
10028
10027.8
10027.7
10027.5
10027.4
10027.1
10026.8
10026.4
10026.2
10026
10025.8
10025.5
10025.1
10024.6
10024
10023.3
10022.4
10021.7
10021.3
10021.1
10020.8
10020.4
10019.5
10018
10016.5
10015.5
10015
10014.7
10014.6
10014.4
10014.3
10014.2
10014.1
10013.8
10013.4
10012.9
10012.2
10011.7
10011.3
10011.1
10010.8
10010.6
10010.2
10009.8
10009.4
10009.1
10008.7
10008.1
10007
10005.5
10004.3
10003.8
10003.6
10003.5
10003.3
10003.2
10003
10002.8
10002.6
10002.4
10001.9
10001.2
9999.98
9998.68
9997.51
9996.51
9995.72
9995.15
9994.8
9994.62
9994.52
9994.45
9994.35
9994.19
9993.98
9993.75
9993.54
9993.33
9993.11
9992.84
9992.45
9991.9
9991.25
9990.67
9990.29
9990.05
9989.87
9989.67
9989.41
9989.1
9988.74
9988.28
9987.6
9986.6
9985.42
9984.58
9984.2
9984.04
9983.95
9983.85
9983.74
9983.59
9983.38
9983.06
9982.65
9982.28
9982
9981.75
9981.45
9981.08
9980.7
9980.44
9980.27
9980.13
9979.95
9979.67
9979.24
9978.7
9978.22
9977.94
9977.83
9977.81
9977.8
9977.8
9977.8
9977.82
9977.84
9977.88
9977.93
9978.07
9978.33
9978.69
9979
9979.21
9979.34
9979.46
9979.58
9979.7
9979.82
9979.94
9980.04
9980.1
9980.14
9980.18
9980.24
9980.36
9980.6
9981.01
9981.58
9982.24
9983.01
9983.9
9984.91
9986.03
9987.35
9988.93
9990.67
9992.39
9994.1
9996.08
9998.36
10000.3
10001.4
10002
10002.4
10002.8
10003.3
10003.9
10004.5
10005.2
10005.8
10006.5
10007
10007.5
10007.8
10008
10008.4
10009.2
10011.2
10014.9
10019.5
10023.3
10025.3
10026.4
10027.2
10028.4
10030.4
10032.9
10033.5
10032.5
10031.6
10030.8
10030.1
10029.5
10029.2
10028.9
10028.8
10028.6
10028.5
10028.3
10028.1
10027.9
10027.7
10027.5
10027.1
10026.7
10026.4
10026.1
10025.9
10025.9
10025.8
10025.6
10025.3
10024.7
10024
10023.1
10022.1
10021.4
10021
10020.7
10020.5
10020
10018.9
10017.3
10015.9
10015.2
10014.8
10014.6
10014.6
10014.5
10014.4
10014.3
10014.1
10013.9
10013.5
10013.1
10012.5
10011.9
10011.4
10011.1
10010.9
10010.6
10010.2
10009.8
10009.3
10009
10008.6
10007.8
10006.5
10005.1
10004.1
10003.8
10003.6
10003.5
10003.4
10003.2
10003
10002.8
10002.5
10002.1
10001.4
10000.3
9999.03
9998.01
9997.27
9996.64
9996.05
9995.53
9995.15
9994.92
9994.75
9994.59
9994.41
9994.19
9993.95
9993.7
9993.47
9993.24
9993.01
9992.74
9992.37
9991.84
9991.21
9990.68
9990.34
9990.13
9989.93
9989.68
9989.33
9988.9
9988.39
9987.76
9986.97
9986.02
9985.1
9984.47
9984.16
9984.02
9983.95
9983.9
9983.82
9983.69
9983.47
9983.13
9982.69
9982.28
9981.96
9981.68
9981.35
9980.97
9980.59
9980.31
9980.11
9979.95
9979.76
9979.48
9979.06
9978.55
9978.13
9977.89
9977.79
9977.76
9977.74
9977.74
9977.73
9977.73
9977.73
9977.74
9977.75
9977.83
9978.04
9978.36
9978.7
9978.96
9979.14
9979.29
9979.43
9979.53
9979.6
9979.6
9979.55
9979.51
9979.51
9979.54
9979.6
9979.73
9979.99
9980.42
9980.98
9981.69
9982.71
9984.11
9985.56
9986.88
9988.2
9989.64
9991.13
9992.59
9994.17
9996.15
9998.45
10000.3
10001.3
10001.8
10002.1
10002.3
10002.6
10003
10003.6
10004.3
10005.3
10006.4
10007.2
10007.7
10008.1
10008.4
10008.9
10009.6
10011.2
10014.3
10018.1
10020.8
10022.3
10023.1
10023.7
10024.5
10026.1
10029.3
10034.2
10033.2
10032.2
10031.2
10030.4
10029.9
10029.5
10029.1
10028.8
10028.6
10028.4
10028.2
10028
10027.9
10027.7
10027.4
10026.9
10026.4
10026.1
10025.9
10025.9
10025.8
10025.7
10025.6
10025.2
10024.7
10023.9
10022.9
10021.9
10021.3
10020.9
10020.6
10020.4
10019.8
10018.8
10017.3
10015.8
10015.1
10014.7
10014.6
10014.6
10014.5
10014.4
10014.3
10014.1
10013.9
10013.6
10013.3
10012.9
10012.3
10011.8
10011.3
10011
10010.6
10010.1
10009.6
10009.1
10008.7
10008.2
10007.3
10006
10004.8
10004.1
10003.8
10003.6
10003.5
10003.3
10003.2
10002.9
10002.5
10001.9
10001
10000
9998.94
9998.03
9997.42
9997.03
9996.68
9996.3
9995.9
9995.55
9995.28
9995.03
9994.78
9994.53
9994.26
9993.98
9993.69
9993.41
9993.14
9992.87
9992.58
9992.25
9991.79
9991.23
9990.73
9990.41
9990.22
9990.04
9989.78
9989.36
9988.8
9988.16
9987.48
9986.77
9985.95
9985.12
9984.5
9984.16
9984.02
9983.96
9983.92
9983.88
9983.81
9983.66
9983.35
9982.88
9982.4
9981.98
9981.61
9981.2
9980.77
9980.39
9980.12
9979.95
9979.83
9979.68
9979.43
9979.03
9978.51
9978.08
9977.85
9977.76
9977.73
9977.71
9977.69
9977.65
9977.59
9977.51
9977.46
9977.45
9977.51
9977.67
9977.92
9978.18
9978.37
9978.5
9978.6
9978.71
9978.83
9978.97
9979.1
9979.19
9979.23
9979.25
9979.26
9979.27
9979.35
9979.55
9979.94
9980.54
9981.47
9982.95
9984.71
9986.15
9987.25
9988.35
9989.62
9990.97
9992.23
9993.48
9995.07
9997.22
9999.34
10000.7
10001.3
10001.6
10001.7
10001.9
10002.2
10002.8
10003.6
10004.7
10006
10007.2
10008.1
10008.6
10009.1
10009.7
10010.4
10011.6
10013.7
10016.6
10019.3
10021.3
10022.5
10023.1
10023.6
10024.3
10026.7
10034
10033.5
10032.6
10031.6
10030.9
10030.4
10030
10029.5
10029
10028.6
10028.3
10028.1
10027.9
10027.8
10027.6
10027.2
10026.6
10026
10025.8
10025.6
10025.6
10025.5
10025.4
10025.1
10024.7
10024.2
10023.5
10022.8
10022
10021.4
10021
10020.6
10020.3
10019.7
10018.7
10017.1
10015.8
10015
10014.7
10014.6
10014.6
10014.5
10014.4
10014.3
10014.1
10013.8
10013.6
10013.4
10013.2
10012.8
10012.3
10011.6
10011
10010.4
10009.8
10009.3
10008.8
10008.3
10007.6
10006.7
10005.8
10005
10004.4
10004
10003.7
10003.5
10003.2
10002.9
10002.4
10001.6
10000.6
9999.63
9998.82
9998.16
9997.61
9997.2
9996.91
9996.65
9996.37
9996.07
9995.78
9995.52
9995.28
9995.03
9994.78
9994.49
9994.16
9993.79
9993.42
9993.06
9992.74
9992.46
9992.16
9991.76
9991.25
9990.76
9990.44
9990.26
9990.11
9989.9
9989.53
9988.94
9988.22
9987.52
9986.85
9986.09
9985.25
9984.55
9984.16
9984.01
9983.95
9983.92
9983.9
9983.87
9983.79
9983.57
9983.19
9982.72
9982.25
9981.75
9981.18
9980.64
9980.24
9980.02
9979.89
9979.78
9979.63
9979.38
9978.98
9978.46
9978.03
9977.82
9977.75
9977.72
9977.7
9977.68
9977.59
9977.42
9977.22
9977.1
9977.07
9977.11
9977.21
9977.36
9977.55
9977.73
9977.86
9977.93
9978
9978.11
9978.31
9978.63
9978.93
9979.08
9979.11
9979.09
9979.06
9979.07
9979.16
9979.39
9979.9
9980.97
9982.68
9984.5
9985.92
9986.99
9988.06
9989.34
9990.69
9991.89
9992.96
9994.15
9995.65
9997.28
9998.6
9999.46
10000
10000.4
10000.9
10001.4
10002.1
10003.1
10004.3
10005.8
10007.2
10008.4
10009.1
10009.8
10010.4
10011
10011.9
10013.3
10015.2
10017.5
10020
10021.8
10022.8
10023.4
10024
10025.2
10033.9
10033.5
10032.8
10031.7
10031
10030.5
10030.2
10029.8
10029.2
10028.6
10028.2
10027.9
10027.7
10027.6
10027.3
10026.8
10026.3
10025.8
10025.5
10025.3
10025
10024.8
10024.6
10024.3
10024
10023.6
10023.2
10022.8
10022.4
10021.9
10021.4
10020.9
10020.4
10019.6
10018.3
10016.8
10015.6
10015
10014.8
10014.7
10014.6
10014.6
10014.5
10014.3
10014
10013.7
10013.5
10013.3
10013.2
10012.9
10012.5
10011.8
10011
10010.2
10009.5
10009
10008.6
10008.1
10007.3
10006.5
10005.7
10005.2
10004.7
10004.3
10003.8
10003.4
10002.9
10002.3
10001.5
10000.6
9999.65
9998.97
9998.49
9998.07
9997.65
9997.24
9996.9
9996.61
9996.33
9996.06
9995.79
9995.54
9995.32
9995.14
9994.97
9994.77
9994.5
9994.12
9993.62
9993.12
9992.72
9992.41
9992.12
9991.75
9991.26
9990.77
9990.43
9990.23
9990.08
9989.91
9989.66
9989.23
9988.55
9987.75
9986.99
9986.18
9985.32
9984.62
9984.22
9984.04
9983.96
9983.92
9983.9
9983.86
9983.78
9983.58
9983.3
9982.95
9982.57
9982.1
9981.46
9980.76
9980.22
9979.93
9979.77
9979.63
9979.44
9979.19
9978.84
9978.4
9978.02
9977.82
9977.74
9977.7
9977.67
9977.59
9977.42
9977.16
9976.94
9976.83
9976.79
9976.78
9976.82
9976.92
9977.15
9977.46
9977.7
9977.81
9977.87
9977.92
9978.03
9978.27
9978.63
9978.87
9978.94
9978.91
9978.87
9978.85
9978.88
9978.97
9979.28
9980.06
9981.37
9982.86
9984.17
9985.35
9986.71
9988.33
9989.96
9991.32
9992.44
9993.5
9994.56
9995.61
9996.6
9997.54
9998.43
9999.2
9999.86
10000.5
10001.3
10002.4
10003.8
10005.5
10007.2
10008.5
10009.4
10010
10010.6
10011.2
10012
10013.1
10014.6
10016.4
10018.4
10020.2
10021.5
10022.4
10023.2
10023.8
10034
10033.6
10032.9
10031.9
10031
10030.5
10030.2
10029.8
10029.3
10028.7
10028.2
10027.8
10027.5
10027.3
10027
10026.7
10026.3
10025.8
10025.4
10025
10024.7
10024.3
10024
10023.8
10023.6
10023.4
10023.1
10022.9
10022.6
10022.3
10021.9
10021.4
10020.7
10019.7
10018.2
10016.6
10015.5
10015.1
10014.9
10014.8
10014.7
10014.6
10014.5
10014.2
10013.9
10013.7
10013.5
10013.3
10013.1
10012.8
10012.3
10011.6
10010.7
10010
10009.4
10009
10008.6
10008.2
10007.5
10006.7
10005.9
10005.2
10004.7
10004.3
10003.8
10003.3
10002.6
10001.8
10001
10000.2
9999.46
9998.89
9998.48
9998.12
9997.74
9997.34
9996.96
9996.62
9996.32
9996.03
9995.74
9995.46
9995.25
9995.09
9994.97
9994.84
9994.69
9994.42
9993.96
9993.36
9992.82
9992.42
9992.09
9991.72
9991.26
9990.78
9990.4
9990.16
9990
9989.85
9989.69
9989.42
9988.87
9988.03
9987.05
9986.05
9985.17
9984.58
9984.29
9984.13
9984.02
9983.95
9983.89
9983.81
9983.68
9983.5
9983.3
9983.04
9982.71
9982.26
9981.63
9980.84
9980.13
9979.69
9979.47
9979.31
9979.14
9978.95
9978.7
9978.35
9978.02
9977.8
9977.68
9977.58
9977.45
9977.29
9977.1
9976.91
9976.78
9976.71
9976.67
9976.65
9976.66
9976.74
9976.97
9977.34
9977.65
9977.8
9977.86
9977.91
9977.97
9978.1
9978.34
9978.57
9978.69
9978.73
9978.74
9978.75
9978.78
9978.85
9979.05
9979.52
9980.2
9980.9
9981.61
9982.56
9984.08
9986.19
9988.45
9990.37
9991.88
9993.14
9994.23
9995.17
9996.01
9996.84
9997.7
9998.52
9999.22
9999.85
10000.5
10001.5
10002.9
10004.7
10006.6
10008.1
10009.1
10009.9
10010.5
10011.1
10011.9
10013
10014.7
10016.5
10018.2
10019.3
10020
10020.6
10021.2
10021.7
10034.1
10033.7
10032.9
10031.9
10031
10030.5
10030.2
10029.9
10029.4
10028.8
10028.2
10027.7
10027.4
10027.1
10026.9
10026.7
10026.4
10026
10025.4
10024.9
10024.4
10024.1
10023.8
10023.6
10023.5
10023.4
10023.2
10022.9
10022.7
10022.4
10022
10021.5
10020.8
10019.8
10018.5
10016.9
10015.8
10015.2
10015
10015
10014.9
10014.8
10014.6
10014.3
10014
10013.7
10013.5
10013.2
10012.9
10012.5
10011.9
10011.1
10010.3
10009.7
10009.3
10009
10008.7
10008.4
10007.8
10007
10006.1
10005.3
10004.7
10004.2
10003.7
10003.1
10002.5
10001.8
10001.1
10000.4
9999.68
9999.02
9998.5
9998.08
9997.69
9997.31
9996.94
9996.62
9996.36
9996.1
9995.81
9995.5
9995.24
9995.05
9994.91
9994.8
9994.67
9994.47
9994.11
9993.56
9992.93
9992.39
9991.93
9991.51
9991.1
9990.7
9990.37
9990.13
9989.96
9989.82
9989.67
9989.43
9988.94
9988.05
9986.88
9985.76
9984.96
9984.53
9984.33
9984.22
9984.12
9984.01
9983.89
9983.74
9983.6
9983.47
9983.32
9983.1
9982.72
9982.12
9981.31
9980.45
9979.78
9979.36
9979.14
9979.02
9978.91
9978.76
9978.56
9978.26
9977.94
9977.69
9977.5
9977.32
9977.14
9976.99
9976.86
9976.77
9976.69
9976.64
9976.6
9976.58
9976.58
9976.62
9976.78
9977.11
9977.48
9977.72
9977.83
9977.89
9977.97
9978.07
9978.22
9978.39
9978.52
9978.61
9978.67
9978.7
9978.74
9978.82
9979
9979.26
9979.51
9979.74
9980.08
9980.78
9982.17
9984.32
9986.83
9989.16
9991.11
9992.7
9993.95
9994.91
9995.68
9996.41
9997.19
9997.95
9998.61
9999.13
9999.64
10000.3
10001.5
10003
10004.6
10006
10007.2
10008.3
10009.4
10010.2
10011.1
10012.4
10014.5
10016.7
10018.3
10019
10019.3
10019.4
10019.5
10019.4
10034.2
10033.6
10032.6
10031.6
10031
10030.6
10030.3
10030
10029.5
10029
10028.4
10027.8
10027.4
10027.1
10026.9
10026.7
10026.4
10026.1
10025.5
10024.9
10024.3
10023.9
10023.7
10023.6
10023.5
10023.4
10023.2
10023
10022.7
10022.3
10021.7
10021
10020.4
10019.7
10018.9
10017.7
10016.4
10015.6
10015.3
10015.1
10015
10014.9
10014.7
10014.5
10014.1
10013.7
10013.4
10013.1
10012.7
10012.3
10011.6
10010.7
10010.1
10009.6
10009.3
10009.1
10008.8
10008.4
10007.8
10007.1
10006.1
10005.3
10004.6
10004.2
10003.7
10003.2
10002.6
10001.9
10001.3
10000.6
9999.73
9998.99
9998.46
9998.06
9997.68
9997.28
9996.91
9996.61
9996.4
9996.2
9995.95
9995.64
9995.31
9995.05
9994.89
9994.76
9994.63
9994.43
9994.07
9993.51
9992.85
9992.23
9991.7
9991.26
9990.87
9990.55
9990.31
9990.13
9989.97
9989.81
9989.62
9989.31
9988.72
9987.78
9986.68
9985.68
9984.97
9984.57
9984.38
9984.27
9984.17
9984.04
9983.88
9983.72
9983.58
9983.47
9983.32
9983.05
9982.5
9981.61
9980.65
9979.93
9979.48
9979.19
9979
9978.87
9978.75
9978.6
9978.38
9978.11
9977.81
9977.53
9977.31
9977.13
9976.99
9976.88
9976.79
9976.7
9976.62
9976.55
9976.51
9976.48
9976.46
9976.45
9976.49
9976.7
9977.07
9977.44
9977.67
9977.81
9977.93
9978.06
9978.21
9978.36
9978.47
9978.55
9978.61
9978.67
9978.73
9978.85
9979.03
9979.17
9979.27
9979.38
9979.6
9980.13
9981.28
9983.1
9985.26
9987.43
9989.59
9991.68
9993.4
9994.59
9995.41
9996.09
9996.79
9997.49
9998.06
9998.45
9998.78
9999.22
9999.94
10001
10002.1
10003.1
10004.1
10005.3
10006.5
10007.5
10008.5
10009.9
10012.5
10015.6
10017.8
10018.7
10018.9
10018.9
10018.8
10017.9
10034.7
10033.4
10032.2
10031.3
10030.9
10030.6
10030.3
10030
10029.6
10029.1
10028.5
10028
10027.5
10027.2
10026.9
10026.7
10026.4
10026
10025.5
10024.8
10024.2
10023.8
10023.6
10023.5
10023.4
10023.4
10023.2
10023
10022.5
10021.8
10021
10020.3
10019.9
10019.6
10019.2
10018.6
10017.6
10016.6
10015.9
10015.5
10015.3
10015.1
10014.9
10014.6
10014.2
10013.8
10013.4
10013
10012.6
10012
10011.2
10010.5
10010
10009.6
10009.4
10009.1
10008.7
10008.2
10007.7
10006.9
10006
10005.2
10004.6
10004.2
10003.8
10003.3
10002.7
10002
10001.2
10000.2
9999.31
9998.7
9998.37
9998.15
9997.88
9997.49
9997.05
9996.7
9996.45
9996.26
9996.03
9995.71
9995.36
9995.1
9994.95
9994.82
9994.67
9994.4
9993.95
9993.35
9992.71
9992.14
9991.61
9991.14
9990.74
9990.44
9990.24
9990.11
9989.97
9989.77
9989.46
9988.99
9988.4
9987.7
9986.92
9986.06
9985.28
9984.75
9984.47
9984.31
9984.18
9984.04
9983.87
9983.71
9983.57
9983.44
9983.23
9982.81
9982
9980.96
9980.12
9979.66
9979.38
9979.14
9978.94
9978.77
9978.6
9978.41
9978.19
9977.94
9977.68
9977.44
9977.23
9977.07
9976.95
9976.85
9976.76
9976.65
9976.56
9976.49
9976.44
9976.4
9976.35
9976.27
9976.2
9976.27
9976.6
9977.06
9977.43
9977.65
9977.81
9977.96
9978.14
9978.3
9978.42
9978.49
9978.55
9978.61
9978.71
9978.88
9979.04
9979.15
9979.22
9979.3
9979.44
9979.8
9980.59
9981.82
9983.21
9984.64
9986.38
9988.71
9991.4
9993.59
9994.93
9995.82
9996.58
9997.26
9997.78
9998.13
9998.38
9998.66
9999.1
9999.84
10000.8
10001.7
10002.5
10003.2
10004
10004.8
10005.5
10006.5
10008.6
10011.8
10015
10017.1
10017.9
10018.1
10017.8
10016.2
10035.3
10033
10031.8
10031.2
10030.9
10030.6
10030.4
10030.1
10029.7
10029.2
10028.6
10028
10027.5
10027.2
10026.9
10026.6
10026.2
10025.7
10025.1
10024.5
10024.1
10023.8
10023.7
10023.6
10023.5
10023.4
10023.1
10022.6
10021.8
10020.9
10020.3
10019.9
10019.7
10019.5
10019.2
10018.9
10018.4
10017.6
10016.9
10016.2
10015.7
10015.3
10015
10014.7
10014.3
10013.9
10013.4
10012.9
10012.4
10011.8
10011.1
10010.4
10009.9
10009.6
10009.3
10009
10008.6
10008.1
10007.6
10006.9
10006.1
10005.3
10004.7
10004.2
10003.8
10003.3
10002.6
10001.6
10000.5
9999.53
9998.84
9998.48
9998.31
9998.19
9998.04
9997.78
9997.39
9996.99
9996.67
9996.41
9996.12
9995.76
9995.42
9995.2
9995.07
9994.96
9994.8
9994.52
9994.08
9993.53
9992.91
9992.27
9991.63
9991.02
9990.58
9990.31
9990.15
9990.01
9989.81
9989.5
9989.07
9988.64
9988.26
9987.87
9987.35
9986.63
9985.82
9985.17
9984.75
9984.5
9984.31
9984.12
9983.9
9983.7
9983.52
9983.32
9982.99
9982.37
9981.45
9980.52
9979.88
9979.52
9979.27
9979.01
9978.76
9978.55
9978.38
9978.23
9978.05
9977.86
9977.64
9977.42
9977.22
9977.06
9976.93
9976.82
9976.71
9976.6
9976.49
9976.4
9976.32
9976.26
9976.18
9976.07
9975.97
9975.98
9976.19
9976.64
9977.14
9977.47
9977.66
9977.81
9977.98
9978.14
9978.26
9978.31
9978.31
9978.3
9978.39
9978.59
9978.81
9978.94
9978.99
9979.03
9979.13
9979.39
9979.93
9980.73
9981.59
9982.4
9983.33
9984.83
9987.31
9990.4
9993.18
9995.08
9996.3
9997.12
9997.67
9998.03
9998.29
9998.54
9998.84
9999.3
10000
10001
10001.8
10002.4
10002.9
10003.4
10004.1
10004.9
10006
10007.8
10009.9
10011.8
10013
10013.7
10013.7
10012.8
10034.6
10032.9
10032
10031.4
10031.1
10030.8
10030.5
10030.2
10029.7
10029
10028.3
10027.8
10027.4
10027.2
10026.9
10026.5
10026
10025.4
10024.8
10024.3
10024
10023.9
10023.7
10023.6
10023.5
10023.3
10022.8
10021.9
10020.9
10020.3
10019.9
10019.7
10019.6
10019.4
10019.2
10018.9
10018.6
10018.1
10017.5
10016.9
10016.2
10015.6
10015.2
10014.8
10014.3
10013.8
10013.3
10012.9
10012.5
10011.9
10011.2
10010.4
10009.9
10009.5
10009.2
10008.8
10008.4
10008
10007.5
10006.9
10006.2
10005.5
10004.8
10004.2
10003.6
10002.9
10001.9
10000.8
9999.76
9999.04
9998.63
9998.41
9998.28
9998.18
9998.06
9997.88
9997.61
9997.26
9996.91
9996.57
9996.2
9995.81
9995.5
9995.3
9995.18
9995.06
9994.91
9994.69
9994.37
9993.92
9993.31
9992.5
9991.58
9990.81
9990.38
9990.17
9990.03
9989.85
9989.58
9989.22
9988.86
9988.56
9988.29
9987.97
9987.49
9986.81
9986.05
9985.4
9984.97
9984.7
9984.5
9984.29
9984.03
9983.73
9983.4
9983.02
9982.45
9981.65
9980.82
9980.15
9979.68
9979.34
9979.05
9978.75
9978.51
9978.36
9978.26
9978.16
9978.03
9977.85
9977.63
9977.42
9977.22
9977.05
9976.89
9976.76
9976.63
9976.5
9976.37
9976.24
9976.13
9976.04
9975.95
9975.87
9975.81
9975.79
9975.86
9976.1
9976.55
9977.03
9977.37
9977.58
9977.74
9977.87
9977.93
9977.89
9977.77
9977.69
9977.74
9977.95
9978.25
9978.47
9978.59
9978.65
9978.75
9978.94
9979.35
9980.03
9980.81
9981.48
9982.05
9982.75
9983.99
9986.25
9989.41
9992.51
9994.86
9996.36
9997.29
9997.87
9998.26
9998.55
9998.79
9999.06
9999.5
10000.2
10000.9
10001.5
10002.1
10002.6
10003.2
10004.1
10005
10005.9
10006.4
10006.6
10006.9
10007.1
10007.5
10008.3
10033.4
10032.8
10032.3
10031.9
10031.5
10031.1
10030.7
10030.2
10029.5
10028.7
10028
10027.6
10027.3
10027.1
10026.8
10026.4
10025.9
10025.3
10024.8
10024.4
10024.1
10023.9
10023.8
10023.7
10023.5
10023
10022.2
10021.2
10020.5
10020.1
10019.8
10019.7
10019.6
10019.4
10019.2
10018.9
10018.6
10018.2
10017.7
10017.2
10016.5
10015.9
10015.3
10014.8
10014.3
10013.8
10013.3
10012.9
10012.6
10012.1
10011.4
10010.6
10009.9
10009.4
10009
10008.6
10008.3
10007.8
10007.4
10006.9
10006.3
10005.5
10004.6
10003.9
10003.2
10002.4
10001.4
10000.3
9999.45
9998.9
9998.58
9998.4
9998.27
9998.16
9998.03
9997.84
9997.57
9997.27
9996.96
9996.62
9996.23
9995.86
9995.56
9995.37
9995.23
9995.1
9994.94
9994.73
9994.46
9994.08
9993.47
9992.54
9991.45
9990.67
9990.3
9990.11
9989.97
9989.79
9989.53
9989.23
9988.92
9988.63
9988.33
9987.93
9987.36
9986.62
9985.88
9985.32
9984.95
9984.71
9984.55
9984.38
9984.16
9983.8
9983.27
9982.59
9981.77
9980.93
9980.3
9979.88
9979.54
9979.22
9978.9
9978.62
9978.44
9978.33
9978.25
9978.14
9977.96
9977.71
9977.46
9977.26
9977.09
9976.92
9976.76
9976.61
9976.48
9976.35
9976.22
9976.09
9975.96
9975.86
9975.79
9975.74
9975.71
9975.7
9975.71
9975.77
9975.93
9976.24
9976.6
9976.91
9977.12
9977.22
9977.24
9977.21
9977.17
9977.18
9977.29
9977.52
9977.84
9978.14
9978.35
9978.47
9978.57
9978.73
9979.02
9979.51
9980.12
9980.68
9981.17
9981.7
9982.47
9983.76
9985.73
9988.01
9989.99
9991.63
9993.43
9995.64
9997.46
9998.31
9998.65
9998.84
9999.01
9999.29
9999.84
10000.5
10001.1
10001.5
10001.8
10002
10002.5
10003.2
10003.6
10003.7
10003.5
10003.4
10003.7
10005.1
10033
10032.8
10032.6
10032.3
10032
10031.5
10030.9
10030.2
10029.3
10028.4
10027.9
10027.5
10027.3
10027.1
10026.8
10026.3
10025.7
10025.2
10024.8
10024.5
10024.3
10024.1
10023.9
10023.7
10023.4
10022.7
10021.7
10020.9
10020.3
10020
10019.8
10019.7
10019.5
10019.3
10019.1
10018.9
10018.6
10018.3
10017.8
10017.2
10016.6
10015.9
10015.3
10014.8
10014.4
10013.9
10013.4
10013
10012.6
10012.1
10011.3
10010.5
10009.8
10009.3
10008.9
10008.5
10008.1
10007.7
10007.3
10006.8
10006
10005.1
10004.3
10003.7
10003.2
10002.5
10001.5
10000.4
9999.48
9998.9
9998.59
9998.41
9998.28
9998.15
9997.98
9997.74
9997.44
9997.16
9996.91
9996.64
9996.3
9995.93
9995.61
9995.4
9995.25
9995.11
9994.95
9994.73
9994.44
9994.01
9993.3
9992.31
9991.32
9990.68
9990.35
9990.17
9990.01
9989.83
9989.59
9989.31
9989.03
9988.73
9988.36
9987.83
9987.11
9986.31
9985.61
9985.1
9984.79
9984.6
9984.48
9984.36
9984.19
9983.87
9983.3
9982.51
9981.63
9980.79
9980.19
9979.81
9979.5
9979.19
9978.86
9978.59
9978.41
9978.28
9978.14
9977.92
9977.6
9977.28
9977.07
9976.94
9976.83
9976.69
9976.54
9976.42
9976.32
9976.22
9976.11
9975.98
9975.85
9975.76
9975.69
9975.65
9975.62
9975.62
9975.62
9975.61
9975.61
9975.65
9975.76
9975.94
9976.11
9976.24
9976.34
9976.47
9976.63
9976.84
9977.08
9977.36
9977.69
9977.99
9978.19
9978.32
9978.42
9978.56
9978.77
9979.09
9979.43
9979.74
9980.05
9980.47
9981.11
9982.07
9983.22
9984.11
9984.54
9985.05
9986.37
9989.15
9993.02
9996
9997.28
9997.51
9997.34
9997.35
9997.98
9998.98
9999.71
9999.82
9999.08
9998.03
9997.82
9998.53
9999.52
10000.3
10000.9
10001.4
10002.2
10003.4
10032.9
10032.8
10032.7
10032.5
10032.2
10031.7
10031.1
10030.1
10029
10028.1
10027.6
10027.4
10027.3
10027.1
10026.7
10026.1
10025.5
10025
10024.7
10024.6
10024.5
10024.3
10024.1
10023.8
10023.3
10022.4
10021.4
10020.6
10020.1
10019.9
10019.7
10019.6
10019.4
10019.3
10019.1
10018.9
10018.7
10018.3
10017.8
10017.1
10016.4
10015.6
10015.1
10014.8
10014.5
10014.1
10013.6
10013.1
10012.4
10011.6
10010.8
10010.2
10009.7
10009.4
10009
10008.6
10008.2
10007.7
10007.1
10006.3
10005.4
10004.6
10004
10003.7
10003.4
10003
10002.1
10000.9
9999.7
9998.95
9998.58
9998.4
9998.27
9998.13
9997.93
9997.64
9997.34
9997.07
9996.85
9996.61
9996.3
9995.93
9995.62
9995.41
9995.27
9995.13
9994.94
9994.64
9994.17
9993.53
9992.76
9991.95
9991.25
9990.77
9990.49
9990.31
9990.15
9989.95
9989.71
9989.43
9989.15
9988.83
9988.41
9987.77
9986.91
9986.01
9985.31
9984.85
9984.61
9984.48
9984.4
9984.32
9984.18
9983.9
9983.44
9982.8
9982.05
9981.23
9980.48
9979.91
9979.46
9979.06
9978.71
9978.46
9978.29
9978.13
9977.88
9977.51
9977.14
9976.92
9976.82
9976.76
9976.67
9976.5
9976.25
9976.05
9975.95
9975.87
9975.8
9975.72
9975.67
9975.63
9975.59
9975.56
9975.52
9975.48
9975.47
9975.45
9975.43
9975.41
9975.41
9975.43
9975.49
9975.6
9975.74
9975.91
9976.11
9976.35
9976.64
9976.96
9977.33
9977.67
9977.89
9978.03
9978.13
9978.25
9978.37
9978.49
9978.53
9978.53
9978.57
9978.77
9979.21
9979.96
9980.86
9981.45
9981.64
9981.76
9982.14
9983.28
9985.95
9989.4
9992.07
9993.33
9993.56
9993.58
9993.83
9994.16
9994.26
9994.07
9993.6
9993.34
9993.81
9994.71
9995.67
9996.58
9997.56
9998.82
10000.3
10001.6
10033.1
10032.9
10032.7
10032.5
10032.3
10031.8
10030.9
10029.8
10028.6
10027.8
10027.4
10027.2
10027.1
10027
10026.6
10026
10025.4
10024.9
10024.7
10024.6
10024.5
10024.4
10024.2
10023.9
10023.3
10022.4
10021.3
10020.5
10020
10019.7
10019.6
10019.5
10019.3
10019.2
10019
10018.8
10018.5
10018
10017.5
10016.9
10016.2
10015.6
10015.1
10014.8
10014.5
10014.2
10013.7
10013
10012
10011.2
10010.5
10010.1
10009.8
10009.4
10009.1
10008.6
10008.1
10007.4
10006.6
10005.7
10004.9
10004.3
10003.9
10003.7
10003.5
10003.3
10002.7
10001.7
10000.3
9999.14
9998.61
9998.4
9998.27
9998.14
9997.93
9997.61
9997.27
9997
9996.77
9996.52
9996.2
9995.85
9995.58
9995.41
9995.28
9995.12
9994.83
9994.32
9993.64
9992.94
9992.32
9991.76
9991.25
9990.85
9990.59
9990.42
9990.29
9990.12
9989.87
9989.56
9989.23
9988.87
9988.44
9987.82
9986.94
9985.96
9985.19
9984.75
9984.54
9984.44
9984.38
9984.3
9984.15
9983.87
9983.43
9982.88
9982.29
9981.65
9980.89
9980.11
9979.37
9978.8
9978.45
9978.26
9978.12
9977.93
9977.62
9977.24
9976.96
9976.84
9976.77
9976.71
9976.6