/*--------------------------------*- C++ -*----------------------------------*\
  =========                 |
  \\      /  F ield         | OpenFOAM: The Open Source CFD Toolbox
   \\    /   O peration     | Website:  https://openfoam.org
    \\  /    A nd           | Version:  8
     \\/     M anipulation  |
\*---------------------------------------------------------------------------*/
FoamFile
{
    version     2.0;
    format      ascii;
    class       volScalarField;
    location    "1";
    object      p_rgh;
}
// * * * * * * * * * * * * * * * * * * * * * * * * * * * * * * * * * * * * * //

dimensions      [1 -1 -2 0 0 0 0];

internalField   nonuniform List<scalar> 
20000
(
10023.4
10023.1
10023
10022.9
10022.9
10022.8
10022.4
10021.4
10019.8
10017.9
10016.4
10015.5
10015.1
10014.9
10014.9
10014.8
10014.8
10014.7
10014.6
10014.4
10014.1
10013.8
10013.1
10011.9
10010.6
10009.6
10009
10008.7
10008.4
10008.1
10007.8
10007.4
10007
10006.5
10006.1
10005.7
10005.5
10005.3
10005.3
10005.2
10005
10004.6
10004
10003.3
10002.7
10002.4
10002.2
10002
10001.7
10001.1
10000
9998.67
9997.39
9996.29
9995.46
9994.93
9994.67
9994.53
9994.42
9994.29
9994.08
9993.8
9993.54
9993.36
9993.21
9993.04
9992.81
9992.51
9992.18
9991.83
9991.47
9991.11
9990.79
9990.51
9990.26
9989.98
9989.61
9989.18
9988.72
9988.27
9987.75
9986.97
9985.77
9984.38
9983.29
9982.56
9981.98
9981.42
9980.93
9980.62
9980.46
9980.35
9980.23
9980.07
9979.87
9979.7
9979.58
9979.47
9979.35
9979.2
9979.07
9978.97
9978.89
9978.79
9978.55
9978.01
9977.14
9976.22
9975.59
9975.28
9975.12
9975.01
9974.91
9974.81
9974.71
9974.62
9974.53
9974.45
9974.38
9974.29
9974.15
9973.92
9973.55
9973.06
9972.58
9972.21
9971.96
9971.76
9971.59
9971.44
9971.33
9971.27
9971.23
9971.2
9971.18
9971.16
9971.13
9971.09
9971.05
9971.01
9970.97
9970.94
9970.9
9970.87
9970.86
9970.89
9970.95
9971.06
9971.24
9971.5
9971.81
9972.07
9972.27
9972.42
9972.54
9972.65
9972.73
9972.8
9972.85
9972.89
9972.94
9973.03
9973.22
9973.56
9973.97
9974.38
9974.71
9975
9975.32
9975.74
9976.19
9976.56
9976.83
9977.04
9977.27
9977.58
9978
9978.46
9978.91
9979.35
9979.9
9980.89
9983.22
9988.68
9998.49
10009.9
10017.9
10021.6
10022.9
10023.4
10023.7
10023.9
10024.1
10024.3
10024.6
10025.2
10026.7
10030
10035.3
10040.9
10023.5
10023.1
10023
10022.9
10022.9
10022.8
10022.4
10021.4
10019.6
10017.6
10016.2
10015.4
10015.1
10014.9
10014.9
10014.8
10014.8
10014.7
10014.5
10014.3
10014.1
10013.8
10013.3
10012.4
10011
10009.8
10009.1
10008.7
10008.4
10008.1
10007.8
10007.4
10007
10006.6
10006.1
10005.7
10005.5
10005.4
10005.3
10005.2
10005
10004.6
10004
10003.3
10002.7
10002.3
10002.1
10001.9
10001.6
10000.9
9999.82
9998.6
9997.54
9996.64
9995.8
9995.11
9994.71
9994.52
9994.39
9994.27
9994.09
9993.86
9993.61
9993.41
9993.23
9993.04
9992.79
9992.48
9992.14
9991.8
9991.46
9991.12
9990.81
9990.52
9990.25
9989.97
9989.66
9989.3
9988.89
9988.42
9987.75
9986.71
9985.34
9984.06
9983.13
9982.47
9981.91
9981.35
9980.87
9980.57
9980.42
9980.3
9980.18
9980.02
9979.86
9979.73
9979.63
9979.52
9979.37
9979.2
9979.06
9978.96
9978.9
9978.82
9978.61
9978.04
9977.02
9976.02
9975.47
9975.25
9975.14
9975.05
9974.93
9974.81
9974.7
9974.6
9974.52
9974.46
9974.39
9974.31
9974.17
9973.92
9973.51
9973
9972.54
9972.19
9971.94
9971.74
9971.57
9971.44
9971.34
9971.27
9971.23
9971.2
9971.18
9971.16
9971.12
9971.08
9971.04
9971
9970.96
9970.93
9970.89
9970.85
9970.83
9970.84
9970.9
9971.02
9971.24
9971.54
9971.87
9972.14
9972.33
9972.46
9972.54
9972.62
9972.69
9972.77
9972.83
9972.88
9972.94
9973.04
9973.23
9973.53
9973.88
9974.24
9974.61
9974.98
9975.41
9975.89
9976.33
9976.66
9976.89
9977.09
9977.3
9977.58
9977.94
9978.36
9978.81
9979.27
9979.82
9980.76
9982.91
9987.82
9996.62
10007.4
10016
10020.6
10022.4
10023.2
10023.6
10023.8
10024.1
10024.4
10024.7
10025.1
10025.9
10028
10032.7
10038.5
10023.8
10023.2
10023
10022.9
10022.9
10022.7
10022.1
10020.8
10018.9
10017.2
10016
10015.4
10015.1
10014.9
10014.9
10014.8
10014.8
10014.6
10014.4
10014.2
10014
10013.8
10013.5
10012.8
10011.7
10010.3
10009.3
10008.7
10008.3
10008
10007.7
10007.5
10007.1
10006.7
10006.2
10005.8
10005.5
10005.4
10005.3
10005.2
10005
10004.6
10004
10003.3
10002.7
10002.3
10002
10001.7
10001.2
10000.4
9999.39
9998.43
9997.72
9997.12
9996.44
9995.65
9994.99
9994.59
9994.38
9994.23
9994.07
9993.89
9993.7
9993.52
9993.33
9993.11
9992.82
9992.48
9992.11
9991.75
9991.42
9991.11
9990.8
9990.49
9990.21
9989.95
9989.69
9989.39
9988.98
9988.33
9987.22
9985.83
9984.7
9983.93
9983.26
9982.58
9981.87
9981.23
9980.77
9980.52
9980.38
9980.26
9980.12
9979.97
9979.85
9979.76
9979.68
9979.58
9979.43
9979.23
9979.06
9978.95
9978.89
9978.82
9978.63
9978.02
9976.9
9975.87
9975.4
9975.24
9975.16
9975.08
9974.98
9974.84
9974.71
9974.6
9974.52
9974.45
9974.39
9974.3
9974.14
9973.85
9973.41
9972.91
9972.47
9972.13
9971.87
9971.68
9971.53
9971.42
9971.34
9971.28
9971.24
9971.21
9971.18
9971.15
9971.12
9971.08
9971.04
9970.99
9970.94
9970.89
9970.84
9970.8
9970.76
9970.74
9970.78
9970.91
9971.16
9971.53
9971.93
9972.24
9972.42
9972.5
9972.54
9972.57
9972.63
9972.7
9972.78
9972.84
9972.91
9973.04
9973.26
9973.54
9973.85
9974.15
9974.5
9974.92
9975.42
9975.93
9976.36
9976.67
9976.91
9977.13
9977.36
9977.64
9977.98
9978.36
9978.79
9979.26
9979.88
9980.92
9983.02
9987.14
9993.74
10001.9
10009.7
10015.7
10019.6
10021.7
10022.8
10023.4
10023.9
10024.3
10024.7
10025
10025.6
10026.9
10030.4
10035.9
10024.5
10023.6
10023.2
10023
10022.8
10022.5
10021.6
10020.3
10018.5
10017
10015.9
10015.3
10015
10014.9
10014.9
10014.8
10014.7
10014.5
10014.3
10014
10013.8
10013.7
10013.5
10013
10012
10010.6
10009.4
10008.6
10008.2
10007.9
10007.7
10007.5
10007.3
10006.9
10006.4
10005.9
10005.6
10005.4
10005.3
10005.1
10004.9
10004.4
10003.8
10003.2
10002.6
10002.1
10001.7
10001.3
10000.8
10000
9999.13
9998.35
9997.76
9997.28
9996.77
9996.13
9995.41
9994.82
9994.46
9994.22
9994.03
9993.87
9993.74
9993.63
9993.48
9993.26
9992.95
9992.54
9992.1
9991.69
9991.35
9991.04
9990.72
9990.43
9990.18
9989.96
9989.74
9989.42
9988.85
9987.8
9986.28
9985.01
9984.35
9983.97
9983.53
9982.84
9981.97
9981.2
9980.74
9980.5
9980.36
9980.22
9980.06
9979.93
9979.84
9979.78
9979.72
9979.62
9979.46
9979.26
9979.09
9978.97
9978.9
9978.81
9978.57
9977.89
9976.77
9975.82
9975.39
9975.24
9975.17
9975.09
9974.98
9974.84
9974.71
9974.6
9974.52
9974.45
9974.36
9974.22
9973.97
9973.59
9973.13
9972.71
9972.36
9972.06
9971.82
9971.63
9971.49
9971.4
9971.33
9971.28
9971.24
9971.21
9971.18
9971.15
9971.11
9971.06
9971
9970.94
9970.87
9970.8
9970.74
9970.67
9970.62
9970.6
9970.63
9970.75
9970.99
9971.4
9971.9
9972.28
9972.45
9972.5
9972.52
9972.55
9972.59
9972.65
9972.72
9972.79
9972.86
9972.97
9973.17
9973.47
9973.8
9974.12
9974.45
9974.84
9975.31
9975.82
9976.27
9976.62
9976.91
9977.16
9977.44
9977.75
9978.1
9978.49
9978.91
9979.4
9980.08
9981.27
9983.64
9987.83
9993.2
9998.27
10002.9
10008
10013.5
10018.1
10020.8
10022.2
10023.2
10023.9
10024.4
10024.9
10025.3
10026.4
10029
10033.8
10027.3
10024.8
10023.8
10023.2
10022.8
10022.2
10021.3
10020.1
10018.6
10017.1
10015.9
10015.3
10015
10014.9
10014.9
10014.8
10014.6
10014.4
10014.2
10014
10013.8
10013.7
10013.5
10013
10012.1
10010.7
10009.4
10008.6
10008.1
10007.9
10007.7
10007.6
10007.4
10007.1
10006.6
10006.1
10005.7
10005.4
10005.2
10005
10004.7
10004.1
10003.4
10002.8
10002.2
10001.8
10001.5
10001.1
10000.6
9999.94
9999.19
9998.45
9997.84
9997.34
9996.83
9996.24
9995.6
9995.01
9994.56
9994.24
9994.01
9993.86
9993.77
9993.7
9993.59
9993.39
9993.03
9992.5
9991.97
9991.56
9991.23
9990.91
9990.59
9990.3
9990.09
9989.92
9989.73
9989.4
9988.62
9987.21
9985.68
9984.69
9984.24
9983.98
9983.64
9983.03
9982.12
9981.28
9980.77
9980.51
9980.33
9980.17
9980.01
9979.9
9979.84
9979.79
9979.72
9979.61
9979.44
9979.27
9979.13
9979.03
9978.93
9978.79
9978.47
9977.79
9976.8
9975.92
9975.45
9975.25
9975.13
9975.02
9974.89
9974.76
9974.63
9974.53
9974.43
9974.3
9974.1
9973.82
9973.51
9973.17
9972.82
9972.5
9972.22
9971.95
9971.72
9971.54
9971.43
9971.36
9971.31
9971.27
9971.23
9971.18
9971.12
9971.03
9970.93
9970.84
9970.79
9970.75
9970.71
9970.66
9970.59
9970.53
9970.49
9970.48
9970.52
9970.62
9970.83
9971.23
9971.8
9972.24
9972.43
9972.49
9972.51
9972.53
9972.57
9972.63
9972.7
9972.76
9972.81
9972.87
9972.99
9973.23
9973.58
9973.98
9974.39
9974.81
9975.28
9975.78
9976.24
9976.63
9976.94
9977.22
9977.52
9977.88
9978.3
9978.76
9979.27
9979.87
9980.73
9982.22
9985.05
9989.51
9994.22
9997.54
9999.84
10002.6
10007.3
10013.1
10017.4
10019.7
10021.1
10022.2
10023.1
10023.8
10024.3
10025.1
10027.2
10031.5
10029.9
10026.4
10024.7
10023.8
10023
10022.2
10021.2
10020.1
10018.8
10017.4
10016.1
10015.3
10015
10014.9
10014.8
10014.7
10014.6
10014.4
10014.2
10014
10013.8
10013.7
10013.5
10013.1
10012.3
10011
10009.6
10008.7
10008.2
10007.9
10007.7
10007.6
10007.4
10007.1
10006.6
10006.1
10005.7
10005.5
10005.2
10004.9
10004.3
10003.6
10002.9
10002.3
10002
10001.7
10001.4
10001
10000.5
10000
9999.39
9998.68
9998.02
9997.46
9996.95
9996.42
9995.83
9995.21
9994.69
9994.31
9994.06
9993.9
9993.81
9993.73
9993.63
9993.41
9992.93
9992.3
9991.75
9991.34
9991
9990.63
9990.28
9990.04
9989.88
9989.77
9989.64
9989.38
9988.69
9987.36
9985.8
9984.76
9984.29
9984.03
9983.73
9983.16
9982.26
9981.37
9980.8
9980.5
9980.29
9980.11
9979.97
9979.88
9979.82
9979.77
9979.7
9979.56
9979.38
9979.23
9979.13
9979.05
9978.94
9978.76
9978.41
9977.8
9976.96
9976.12
9975.53
9975.19
9974.98
9974.83
9974.69
9974.55
9974.38
9974.19
9973.94
9973.65
9973.32
9973.01
9972.79
9972.63
9972.44
9972.2
9971.94
9971.69
9971.49
9971.36
9971.28
9971.24
9971.2
9971.16
9971.09
9970.96
9970.79
9970.62
9970.48
9970.41
9970.4
9970.43
9970.46
9970.47
9970.45
9970.41
9970.38
9970.37
9970.4
9970.47
9970.65
9971.03
9971.61
9972.11
9972.35
9972.42
9972.42
9972.41
9972.42
9972.5
9972.63
9972.73
9972.79
9972.83
9972.91
9973.05
9973.3
9973.66
9974.1
9974.63
9975.22
9975.82
9976.33
9976.73
9977.04
9977.33
9977.68
9978.22
9979.06
9980.2
9981.31
9982.16
9982.97
9984.3
9986.91
9990.91
9994.84
9997.37
9998.91
10000.5
10003.4
10007.6
10011.7
10014.1
10015.4
10016.1
10016.6
10017.3
10018.4
10020.2
10023.3
10028.4
10031.1
10027.7
10025.7
10024.5
10023.4
10022.3
10021.1
10019.9
10018.6
10017.3
10016.1
10015.4
10015.1
10014.9
10014.8
10014.7
10014.5
10014.3
10014.1
10013.9
10013.7
10013.6
10013.4
10013.1
10012.5
10011.4
10010.1
10009.1
10008.5
10008.1
10007.8
10007.5
10007.2
10006.8
10006.4
10006.1
10005.8
10005.5
10005.1
10004.6
10003.9
10003.1
10002.5
10002.1
10001.8
10001.6
10001.2
10000.8
10000.5
10000.1
9999.63
9999.06
9998.41
9997.8
9997.27
9996.78
9996.23
9995.61
9994.99
9994.51
9994.2
9993.99
9993.84
9993.69
9993.48
9993.09
9992.51
9991.92
9991.44
9991.03
9990.63
9990.26
9989.98
9989.83
9989.75
9989.67
9989.57
9989.36
9988.89
9987.94
9986.56
9985.34
9984.66
9984.3
9983.96
9983.4
9982.54
9981.61
9980.93
9980.53
9980.27
9980.08
9979.95
9979.87
9979.81
9979.74
9979.64
9979.48
9979.31
9979.19
9979.1
9979.02
9978.89
9978.65
9978.23
9977.6
9976.84
9976.11
9975.53
9975.12
9974.84
9974.63
9974.44
9974.19
9973.88
9973.54
9973.2
9972.88
9972.57
9972.32
9972.15
9972.04
9971.92
9971.75
9971.56
9971.39
9971.26
9971.16
9971.09
9971.02
9970.93
9970.8
9970.63
9970.43
9970.25
9970.12
9970.06
9970.05
9970.07
9970.12
9970.17
9970.21
9970.23
9970.24
9970.24
9970.25
9970.27
9970.32
9970.43
9970.73
9971.26
9971.79
9972.06
9972.08
9971.97
9971.82
9971.74
9971.81
9972.04
9972.35
9972.58
9972.71
9972.82
9972.96
9973.15
9973.43
9973.82
9974.34
9974.99
9975.67
9976.28
9976.75
9977.12
9977.48
9978.04
9979.14
9981.07
9983.2
9984.66
9985.38
9985.77
9986.41
9988.22
9991.5
9994.84
9996.97
9998.19
9999.27
10000.8
10003.1
10005.4
10007
10007.5
10007.4
10007.2
10007.8
10009.5
10012.7
10017.9
10025
10032.6
10028.7
10026.5
10025
10023.7
10022.2
10020.9
10019.5
10018.2
10016.9
10015.9
10015.4
10015.2
10015
10014.9
10014.7
10014.4
10014.2
10014
10013.8
10013.7
10013.5
10013.4
10013.1
10012.3
10011.1
10010.1
10009.4
10009
10008.6
10008.1
10007.5
10007
10006.6
10006.4
10006.1
10005.9
10005.5
10005
10004.3
10003.7
10003.1
10002.6
10002.1
10001.8
10001.4
10001
10000.6
10000.3
10000.1
9999.8
9999.44
9998.95
9998.39
9997.84
9997.33
9996.79
9996.17
9995.47
9994.84
9994.38
9994.06
9993.78
9993.47
9993.07
9992.55
9992.01
9991.54
9991.15
9990.78
9990.42
9990.12
9989.92
9989.81
9989.74
9989.67
9989.54
9989.3
9988.84
9988.08
9987.11
9986.16
9985.43
9984.87
9984.33
9983.64
9982.79
9981.93
9981.24
9980.73
9980.37
9980.11
9979.94
9979.81
9979.72
9979.63
9979.52
9979.37
9979.24
9979.13
9979.04
9978.91
9978.69
9978.32
9977.79
9977.14
9976.5
9975.95
9975.5
9975.12
9974.76
9974.4
9974.04
9973.67
9973.33
9973.04
9972.79
9972.55
9972.3
9972.03
9971.8
9971.63
9971.49
9971.37
9971.26
9971.18
9971.11
9971.03
9970.95
9970.84
9970.66
9970.43
9970.19
9970.01
9969.91
9969.87
9969.86
9969.86
9969.88
9969.89
9969.92
9969.95
9969.99
9970.04
9970.09
9970.14
9970.17
9970.21
9970.25
9970.38
9970.67
9971.06
9971.34
9971.39
9971.26
9971.11
9971.03
9971.04
9971.2
9971.52
9971.9
9972.27
9972.57
9972.81
9973.07
9973.38
9973.78
9974.25
9974.78
9975.37
9975.99
9976.59
9977.14
9977.82
9979.01
9981.05
9983.55
9985.45
9986.41
9986.91
9987.3
9987.89
9989.19
9991.41
9993.75
9995.46
9996.61
9997.55
9998.59
9999.8
10000.9
10001.6
10001.8
10001.7
10001.8
10002.4
10004
10007.1
10012.9
10021.6
10034.2
10029.7
10026.9
10025
10023.4
10021.9
10020.6
10019.4
10018.2
10017
10016
10015.5
10015.2
10015
10014.8
10014.6
10014.3
10014
10013.8
10013.7
10013.6
10013.5
10013.2
10012.5
10011.3
10010.3
10009.8
10009.5
10009.3
10008.9
10008.2
10007.5
10006.9
10006.6
10006.4
10006.1
10005.8
10005.4
10004.8
10004.3
10003.9
10003.5
10003
10002.3
10001.7
10001.1
10000.6
10000.3
10000.1
10000
9999.89
9999.7
9999.39
9998.99
9998.55
9998.09
9997.55
9996.84
9995.98
9995.14
9994.48
9994
9993.61
9993.21
9992.77
9992.28
9991.8
9991.39
9991.05
9990.73
9990.43
9990.17
9989.98
9989.86
9989.77
9989.66
9989.46
9989.12
9988.6
9987.95
9987.31
9986.71
9986.12
9985.46
9984.69
9983.81
9982.89
9982.06
9981.42
9980.93
9980.53
9980.18
9979.9
9979.72
9979.59
9979.5
9979.4
9979.29
9979.16
9979.04
9978.89
9978.65
9978.29
9977.81
9977.28
9976.75
9976.28
9975.87
9975.47
9975.05
9974.59
9974.1
9973.66
9973.33
9973.1
9972.9
9972.69
9972.46
9972.18
9971.88
9971.6
9971.39
9971.24
9971.16
9971.11
9971.07
9971.03
9970.97
9970.88
9970.74
9970.53
9970.28
9970.05
9969.91
9969.84
9969.81
9969.79
9969.78
9969.78
9969.78
9969.79
9969.81
9969.84
9969.88
9969.94
9970
9970.05
9970.07
9970.08
9970.09
9970.15
9970.34
9970.63
9970.85
9970.88
9970.86
9970.85
9970.85
9970.87
9970.97
9971.23
9971.65
9972.13
9972.55
9972.95
9973.37
9973.8
9974.21
9974.63
9975.1
9975.68
9976.37
9977.2
9978.42
9980.35
9982.66
9984.54
9985.74
9986.51
9987.12
9987.82
9988.77
9989.95
9991.24
9992.49
9993.62
9994.58
9995.44
9996.38
9997.41
9998.32
9998.93
9999.29
9999.61
10000
10000.7
10001.9
10004.4
10009.5
10018.6
10036.2
10030.4
10026.9
10024.6
10022.9
10021.5
10020.4
10019.4
10018.4
10017.3
10016.4
10015.7
10015.3
10015
10014.7
10014.4
10014.1
10013.9
10013.8
10013.7
10013.6
10013.4
10012.7
10011.6
10010.5
10009.9
10009.7
10009.6
10009.4
10008.9
10008.1
10007.3
10006.8
10006.5
10006.3
10006.1
10005.7
10005.2
10004.7
10004.3
10004.1
10003.8
10003.4
10002.7
10001.7
10000.8
10000.3
10000.1
10000
9999.97
9999.92
9999.83
9999.65
9999.4
9999.12
9998.76
9998.23
9997.44
9996.39
9995.33
9994.5
9993.94
9993.54
9993.17
9992.75
9992.27
9991.79
9991.37
9991.01
9990.69
9990.41
9990.18
9990.02
9989.92
9989.82
9989.67
9989.42
9989.01
9988.5
9987.96
9987.46
9986.99
9986.48
9985.87
9985.07
9984.05
9982.94
9981.99
9981.35
9980.93
9980.58
9980.22
9979.89
9979.66
9979.53
9979.44
9979.35
9979.23
9979.09
9978.9
9978.66
9978.32
9977.89
9977.41
9976.94
9976.52
9976.17
9975.85
9975.48
9975.01
9974.45
9973.92
9973.5
9973.24
9973.07
9972.9
9972.69
9972.4
9972.06
9971.72
9971.42
9971.22
9971.13
9971.09
9971.07
9971.05
9971.02
9970.97
9970.87
9970.72
9970.5
9970.25
9970.02
9969.88
9969.82
9969.79
9969.77
9969.76
9969.76
9969.76
9969.76
9969.78
9969.8
9969.83
9969.87
9969.91
9969.95
9969.97
9969.97
9969.97
9970
9970.1
9970.34
9970.63
9970.79
9970.82
9970.83
9970.83
9970.83
9970.86
9970.96
9971.23
9971.67
9972.19
9972.75
9973.28
9973.74
9974.11
9974.46
9974.88
9975.43
9976.18
9977.28
9978.93
9981.09
9983.13
9984.6
9985.64
9986.47
9987.31
9988.31
9989.42
9990.44
9991.34
9992.17
9992.94
9993.63
9994.33
9995.18
9996.26
9997.35
9998.17
9998.69
9999.08
9999.5
10000.1
10001.1
10003.2
10007.8
10016.3
10035.5
10030.1
10026.4
10023.9
10022.2
10021
10020.1
10019.2
10018.4
10017.7
10016.9
10016.3
10015.7
10015.1
10014.7
10014.3
10014.1
10013.9
10013.8
10013.7
10013.6
10013.2
10012.4
10011.3
10010.3
10009.9
10009.8
10009.6
10009.3
10008.7
10007.8
10007.1
10006.7
10006.5
10006.3
10006.1
10005.8
10005.3
10004.8
10004.4
10004.1
10003.9
10003.5
10002.9
10001.8
10000.8
10000.2
10000
9999.99
9999.96
9999.92
9999.85
9999.73
9999.56
9999.35
9999.06
9998.58
9997.77
9996.61
9995.41
9994.51
9993.96
9993.6
9993.26
9992.84
9992.32
9991.78
9991.31
9990.92
9990.6
9990.33
9990.13
9990.01
9989.92
9989.83
9989.68
9989.42
9989.04
9988.62
9988.21
9987.79
9987.35
9986.86
9986.26
9985.44
9984.3
9983
9981.95
9981.32
9980.94
9980.64
9980.29
9979.91
9979.62
9979.44
9979.33
9979.23
9979.11
9978.95
9978.75
9978.46
9978.09
9977.63
9977.15
9976.69
9976.34
9976.07
9975.84
9975.53
9975.07
9974.44
9973.81
9973.36
9973.13
9973
9972.89
9972.72
9972.39
9971.95
9971.54
9971.28
9971.15
9971.11
9971.09
9971.07
9971.05
9971.02
9970.96
9970.84
9970.64
9970.37
9970.06
9969.83
9969.74
9969.73
9969.74
9969.74
9969.73
9969.72
9969.72
9969.72
9969.73
9969.76
9969.8
9969.84
9969.88
9969.91
9969.92
9969.92
9969.93
9969.95
9970.02
9970.2
9970.48
9970.71
9970.8
9970.82
9970.82
9970.82
9970.83
9970.86
9970.96
9971.19
9971.57
9972.11
9972.72
9973.28
9973.72
9974.1
9974.51
9975.04
9975.85
9977.13
9979
9981.17
9983.11
9984.59
9985.75
9986.8
9987.89
9989.02
9990.02
9990.79
9991.44
9992.09
9992.77
9993.41
9994.02
9994.75
9995.73
9996.85
9997.79
9998.41
9998.83
9999.25
9999.86
10001
10003.2
10007.2
10014.3
10032.1
10028.9
10025.5
10023
10021.4
10020.5
10019.8
10019.2
10018.5
10017.9
10017.5
10017
10016.6
10015.9
10015.2
10014.6
10014.2
10013.9
10013.8
10013.7
10013.5
10013.2
10012.5
10011.5
10010.6
10010.1
10009.9
10009.6
10009.2
10008.4
10007.5
10007
10006.7
10006.5
10006.3
10006.1
10005.8
10005.4
10005
10004.5
10004.2
10003.8
10003.4
10002.7
10001.8
10000.9
10000.3
10000
9999.98
9999.95
9999.91
9999.84
9999.73
9999.59
9999.41
9999.14
9998.67
9997.82
9996.57
9995.32
9994.45
9993.97
9993.65
9993.35
9992.94
9992.38
9991.77
9991.24
9990.83
9990.52
9990.28
9990.12
9990.01
9989.92
9989.82
9989.64
9989.35
9989.01
9988.69
9988.4
9988.07
9987.66
9987.15
9986.47
9985.53
9984.29
9982.99
9981.98
9981.38
9981.02
9980.73
9980.36
9979.87
9979.41
9979.12
9978.99
9978.91
9978.83
9978.71
9978.5
9978.16
9977.7
9977.21
9976.76
9976.41
9976.16
9975.98
9975.78
9975.48
9974.99
9974.3
9973.64
9973.22
9973.03
9972.93
9972.86
9972.73
9972.43
9971.94
9971.48
9971.22
9971.12
9971.09
9971.07
9971.06
9971.02
9970.92
9970.71
9970.43
9970.14
9969.86
9969.62
9969.51
9969.51
9969.57
9969.63
9969.64
9969.59
9969.5
9969.43
9969.43
9969.48
9969.57
9969.66
9969.74
9969.79
9969.82
9969.84
9969.84
9969.85
9969.87
9969.92
9970.03
9970.25
9970.52
9970.7
9970.77
9970.79
9970.79
9970.77
9970.77
9970.81
9970.92
9971.12
9971.46
9971.94
9972.46
9972.91
9973.28
9973.61
9974.05
9974.82
9976.29
9978.55
9981.11
9983.44
9985.33
9986.78
9987.95
9988.97
9989.85
9990.54
9991.04
9991.47
9991.95
9992.5
9993.05
9993.57
9994.1
9994.77
9995.62
9996.51
9997.3
9997.99
9998.68
9999.64
10001.2
10003.6
10007.1
10012.7
10029.8
10027.5
10024.7
10022.4
10021
10020.2
10019.6
10019.1
10018.6
10018.1
10017.7
10017.4
10017.1
10016.8
10016.2
10015.5
10014.8
10014.2
10013.9
10013.7
10013.4
10013.1
10012.5
10011.8
10011.2
10010.7
10010.3
10009.9
10009.2
10008.3
10007.5
10007
10006.6
10006.4
10006.2
10006
10005.8
10005.5
10005.1
10004.7
10004.2
10003.7
10003.2
10002.6
10001.9
10001.1
10000.4
10000.1
9999.99
9999.94
9999.89
9999.82
9999.72
9999.59
9999.42
9999.17
9998.69
9997.77
9996.44
9995.18
9994.38
9993.96
9993.68
9993.39
9992.99
9992.41
9991.72
9991.14
9990.75
9990.49
9990.3
9990.15
9990.02
9989.91
9989.76
9989.54
9989.24
9988.96
9988.71
9988.46
9988.16
9987.75
9987.16
9986.34
9985.21
9983.92
9982.77
9981.94
9981.42
9981.08
9980.76
9980.32
9979.7
9979.07
9978.7
9978.57
9978.52
9978.48
9978.36
9978.07
9977.61
9977.14
9976.76
9976.48
9976.27
9976.09
9975.91
9975.67
9975.28
9974.73
9974.1
9973.54
9973.17
9972.99
9972.89
9972.8
9972.67
9972.39
9971.91
9971.39
9971.08
9970.95
9970.91
9970.9
9970.86
9970.72
9970.41
9969.99
9969.64
9969.42
9969.31
9969.26
9969.26
9969.3
9969.36
9969.39
9969.35
9969.23
9969.11
9969.07
9969.09
9969.15
9969.26
9969.38
9969.48
9969.56
9969.62
9969.66
9969.68
9969.69
9969.71
9969.75
9969.83
9969.98
9970.19
9970.39
9970.52
9970.58
9970.61
9970.63
9970.66
9970.73
9970.85
9971.03
9971.3
9971.64
9972
9972.32
9972.59
9972.81
9973.06
9973.58
9974.87
9977.53
9981.09
9984.34
9986.62
9988.03
9988.95
9989.66
9990.25
9990.72
9991.09
9991.44
9991.84
9992.31
9992.79
9993.21
9993.58
9993.96
9994.44
9995.1
9995.94
9996.88
9997.94
9999.28
10001.1
10003.4
10006.5
10011.1
10028.2
10026.3
10024.2
10022.3
10021
10020.1
10019.5
10019
10018.5
10018
10017.7
10017.5
10017.2
10017
10016.6
10016.1
10015.5
10014.8
10014.2
10013.8
10013.4
10012.8
10012.3
10012
10011.7
10011.4
10011
10010.5
10009.6
10008.6
10007.6
10006.9
10006.5
10006.3
10006.1
10005.9
10005.7
10005.5
10005.2
10004.7
10004.2
10003.7
10003.2
10002.7
10002
10001.3
10000.6
10000.2
10000
9999.93
9999.86
9999.78
9999.67
9999.52
9999.34
9999.08
9998.67
9997.94
9996.81
9995.51
9994.56
9994.04
9993.72
9993.4
9992.93
9992.25
9991.51
9990.97
9990.67
9990.5
9990.35
9990.2
9990.04
9989.85
9989.64
9989.41
9989.18
9988.96
9988.76
9988.53
9988.21
9987.66
9986.79
9985.62
9984.35
9983.24
9982.42
9981.84
9981.41
9981.05
9980.66
9980.1
9979.37
9978.74
9978.42
9978.31
9978.26
9978.2
9978.02
9977.64
9977.17
9976.83
9976.62
9976.45
9976.27
9976.07
9975.83
9975.49
9975.03
9974.49
9973.96
9973.5
9973.15
9972.92
9972.79
9972.67
9972.5
9972.18
9971.68
9971.16
9970.83
9970.68
9970.61
9970.54
9970.41
9970.12
9969.69
9969.28
9969.03
9968.91
9968.87
9968.83
9968.8
9968.77
9968.78
9968.8
9968.84
9968.87
9968.91
9968.94
9968.98
9969.02
9969.09
9969.17
9969.26
9969.35
9969.42
9969.48
9969.52
9969.54
9969.55
9969.58
9969.63
9969.71
9969.82
9969.94
9970.06
9970.18
9970.31
9970.43
9970.54
9970.65
9970.79
9971
9971.29
9971.62
9971.92
9972.18
9972.4
9972.58
9972.78
9973.12
9974.05
9976.51
9980.61
9984.56
9987.03
9988.33
9989.11
9989.71
9990.23
9990.66
9991.02
9991.36
9991.77
9992.23
9992.7
9993.1
9993.44
9993.77
9994.16
9994.68
9995.4
9996.34
9997.51
9998.97
10000.8
10002.9
10005.6
10009.4
10026.9
10025.4
10023.8
10022.3
10021
10020.1
10019.4
10018.9
10018.4
10018
10017.7
10017.5
10017.2
10016.9
10016.6
10016.2
10015.6
10015
10014.5
10014
10013.4
10012.8
10012.3
10012
10011.8
10011.7
10011.5
10011
10010.2
10009
10007.8
10006.9
10006.4
10006.2
10006
10005.9
10005.7
10005.4
10005.1
10004.8
10004.5
10004.1
10003.6
10003
10002.3
10001.5
10000.8
10000.3
10000
9999.91
9999.81
9999.7
9999.56
9999.38
9999.14
9998.87
9998.55
9998.14
9997.49
9996.5
9995.49
9994.78
9994.29
9993.77
9993.04
9992.15
9991.38
9990.91
9990.67
9990.52
9990.38
9990.22
9990
9989.75
9989.53
9989.35
9989.18
9988.99
9988.78
9988.48
9987.92
9986.88
9985.47
9984.13
9983.15
9982.52
9982.09
9981.71
9981.32
9980.89
9980.35
9979.67
9978.97
9978.48
9978.24
9978.14
9978.08
9977.99
9977.78
9977.43
9977.07
9976.82
9976.66
9976.5
9976.31
9976.05
9975.7
9975.26
9974.77
9974.27
9973.79
9973.38
9973.05
9972.81
9972.63
9972.48
9972.29
9971.98
9971.5
9971.02
9970.7
9970.54
9970.42
9970.26
9969.98
9969.53
9969.05
9968.72
9968.54
9968.43
9968.32
9968.19
9968.05
9967.96
9967.93
9968.02
9968.26
9968.57
9968.79
9968.88
9968.93
9968.98
9969.03
9969.11
9969.19
9969.27
9969.33
9969.39
9969.43
9969.45
9969.46
9969.47
9969.49
9969.51
9969.56
9969.62
9969.71
9969.85
9970.03
9970.21
9970.36
9970.5
9970.68
9970.93
9971.27
9971.61
9971.88
9972.11
9972.31
9972.52
9972.76
9973.14
9974.03
9976.08
9979.47
9983.2
9986.09
9987.87
9988.89
9989.59
9990.14
9990.58
9990.95
9991.32
9991.74
9992.18
9992.59
9992.94
9993.27
9993.62
9994.01
9994.49
9995.11
9995.93
9997.04
9998.54
10000.3
10002.2
10004.4
10007.5
10025.5
10024.5
10023.4
10022.2
10021
10020.1
10019.4
10018.9
10018.4
10018
10017.7
10017.5
10017.2
10016.9
10016.5
10016
10015.4
10014.8
10014.4
10014.1
10013.6
10013
10012.4
10012
10011.9
10011.7
10011.6
10011.3
10010.6
10009.3
10007.9
10006.9
10006.4
10006.1
10005.9
10005.8
10005.6
10005.3
10005.1
10004.8
10004.7
10004.5
10004.1
10003.6
10002.7
10001.7
10000.8
10000.3
10000
9999.9
9999.78
9999.62
9999.41
9999.14
9998.86
9998.6
9998.37
9998.12
9997.75
9997.18
9996.47
9995.85
9995.32
9994.65
9993.7
9992.55
9991.6
9991.02
9990.73
9990.55
9990.38
9990.16
9989.89
9989.63
9989.44
9989.29
9989.14
9988.93
9988.59
9988.01
9987.01
9985.54
9984.02
9982.94
9982.36
9982.03
9981.77
9981.48
9981.1
9980.59
9979.96
9979.28
9978.71
9978.35
9978.15
9978.05
9977.97
9977.85
9977.65
9977.37
9977.09
9976.87
9976.71
9976.55
9976.32
9975.97
9975.52
9975.03
9974.53
9974.06
9973.62
9973.23
9972.91
9972.65
9972.45
9972.3
9972.14
9971.89
9971.48
9971.01
9970.65
9970.43
9970.26
9970.01
9969.56
9968.93
9968.39
9968.07
9967.92
9967.83
9967.71
9967.56
9967.43
9967.34
9967.32
9967.38
9967.61
9967.99
9968.38
9968.63
9968.76
9968.85
9968.94
9969.04
9969.14
9969.22
9969.27
9969.31
9969.33
9969.35
9969.35
9969.35
9969.36
9969.4
9969.46
9969.54
9969.61
9969.71
9969.85
9970.01
9970.16
9970.31
9970.5
9970.79
9971.15
9971.5
9971.78
9972.01
9972.24
9972.53
9972.97
9973.63
9974.63
9976.1
9978.06
9980.59
9983.47
9985.99
9987.68
9988.78
9989.58
9990.23
9990.77
9991.27
9991.73
9992.13
9992.45
9992.72
9993.02
9993.36
9993.76
9994.2
9994.64
9995.15
9995.92
9997.18
9998.89
10000.8
10002.7
10005.2
10024.1
10023.5
10022.9
10022.1
10021.2
10020.3
10019.6
10019
10018.5
10018
10017.6
10017.2
10016.9
10016.6
10016.2
10015.6
10015
10014.6
10014.3
10014.1
10013.8
10013.3
10012.7
10012.2
10011.9
10011.8
10011.7
10011.4
10010.8
10009.6
10008.1
10007.1
10006.5
10006.2
10006
10005.7
10005.5
10005.2
10005
10004.8
10004.7
10004.5
10004.3
10003.9
10003
10001.8
10000.8
10000.2
10000
9999.89
9999.74
9999.52
9999.21
9998.87
9998.58
9998.37
9998.21
9998.04
9997.77
9997.35
9996.88
9996.46
9996.06
9995.5
9994.57
9993.31
9992.11
9991.28
9990.82
9990.54
9990.29
9989.99
9989.68
9989.44
9989.29
9989.16
9989
9988.69
9988.13
9987.29
9986.15
9984.81
9983.53
9982.62
9982.1
9981.78
9981.51
9981.21
9980.82
9980.33
9979.75
9979.15
9978.65
9978.31
9978.1
9977.98
9977.87
9977.74
9977.57
9977.36
9977.14
9976.94
9976.76
9976.55
9976.25
9975.84
9975.37
9974.86
9974.34
9973.82
9973.34
9972.91
9972.56
9972.33
9972.18
9972.08
9971.99
9971.8
9971.43
9970.93
9970.48
9970.16
9969.89
9969.52
9968.96
9968.33
9967.88
9967.65
9967.52
9967.41
9967.29
9967.17
9967.08
9967.03
9967.01
9967.04
9967.14
9967.38
9967.72
9968.02
9968.21
9968.34
9968.44
9968.55
9968.65
9968.74
9968.82
9968.89
9968.95
9968.98
9969
9969.03
9969.1
9969.22
9969.36
9969.47
9969.56
9969.67
9969.79
9969.91
9970.02
9970.13
9970.29
9970.51
9970.81
9971.12
9971.41
9971.72
9972.12
9972.68
9973.46
9974.33
9975.15
9975.93
9976.89
9978.36
9980.61
9983.2
9985.4
9986.99
9988.18
9989.17
9990.08
9990.9
9991.52
9991.9
9992.14
9992.36
9992.65
9993.05
9993.53
9993.95
9994.23
9994.48
9994.9
9995.78
9997.27
9999.08
10000.9
10003
10023.3
10023
10022.6
10022.2
10021.5
10020.7
10019.8
10019
10018.3
10017.7
10017.2
10016.8
10016.5
10016.2
10015.8
10015.3
10014.9
10014.6
10014.4
10014.2
10014
10013.6
10013
10012.4
10012.1
10011.9
10011.8
10011.5
10011
10009.9
10008.4
10007.3
10006.7
10006.4
10006.1
10005.9
10005.5
10005.2
10005
10004.9
10004.7
10004.6
10004.3
10003.8
10002.8
10001.6
10000.6
10000.1
9999.93
9999.8
9999.64
9999.38
9999.03
9998.68
9998.42
9998.24
9998.1
9997.94
9997.71
9997.35
9996.95
9996.63
9996.38
9996.05
9995.37
9994.18
9992.72
9991.54
9990.87
9990.48
9990.15
9989.79
9989.44
9989.2
9989.05
9988.91
9988.67
9988.2
9987.48
9986.68
9985.8
9984.74
9983.58
9982.62
9982.01
9981.62
9981.28
9980.93
9980.55
9980.15
9979.71
9979.2
9978.7
9978.3
9978.05
9977.89
9977.76
9977.63
9977.49
9977.35
9977.2
9977.04
9976.83
9976.55
9976.16
9975.71
9975.22
9974.71
9974.14
9973.51
9972.91
9972.45
9972.16
9972.02
9971.95
9971.91
9971.84
9971.67
9971.31
9970.78
9970.25
9969.81
9969.38
9968.89
9968.34
9967.9
9967.62
9967.46
9967.34
9967.21
9967.08
9966.97
9966.9
9966.88
9966.87
9966.88
9966.92
9967.04
9967.23
9967.44
9967.56
9967.58
9967.46
9967.24
9967.08
9967.11
9967.36
9967.71
9968.04
9968.26
9968.38
9968.47
9968.6
9968.78
9968.98
9969.16
9969.32
9969.49
9969.65
9969.8
9969.9
9969.98
9970.04
9970.09
9970.15
9970.3
9970.59
9971.07
9971.78
9972.71
9973.7
9974.54
9975.18
9975.74
9976.41
9977.46
9979.09
9981.18
9983.37
9985.27
9986.76
9988.04
9989.31
9990.47
9991.22
9991.58
9991.77
9991.95
9992.23
9992.73
9993.35
9993.84
9994.1
9994.28
9994.54
9995.13
9996.28
9997.87
9999.49
10001
10023.1
10022.8
10022.6
10022.2
10021.6
10020.8
10019.7
10018.6
10017.7
10017.1
10016.7
10016.5
10016.3
10016.1
10015.7
10015.4
10015
10014.7
10014.5
10014.3
10014.1
10013.7
10013.3
10012.8
10012.3
10012.1
10011.9
10011.7
10011.3
10010.6
10009.4
10008.2
10007.3
10006.8
10006.4
10006
10005.6
10005.3
10005.2
10005
10004.9
10004.7
10004.3
10003.5
10002.2
10000.9
10000.1
9999.78
9999.63
9999.53
9999.38
9999.16
9998.87
9998.59
9998.35
9998.16
9998.02
9997.86
9997.64
9997.3
9996.93
9996.64
9996.45
9996.24
9995.82
9994.9
9993.47
9992.03
9991.09
9990.51
9990.05
9989.59
9989.16
9988.82
9988.57
9988.3
9987.92
9987.38
9986.79
9986.28
9985.76
9985.03
9983.97
9982.86
9982.03
9981.48
9981.06
9980.69
9980.35
9980.04
9979.69
9979.25
9978.76
9978.33
9978.04
9977.85
9977.71
9977.57
9977.43
9977.31
9977.21
9977.11
9976.95
9976.64
9976.18
9975.63
9975.1
9974.55
9973.95
9973.27
9972.64
9972.21
9972
9971.92
9971.87
9971.83
9971.75
9971.58
9971.22
9970.7
9970.14
9969.57
9968.96
9968.38
9967.94
9967.66