/*--------------------------------*- C++ -*----------------------------------*\
  =========                 |
  \\      /  F ield         | OpenFOAM: The Open Source CFD Toolbox
   \\    /   O peration     | Website:  https://openfoam.org
    \\  /    A nd           | Version:  8
     \\/     M anipulation  |
\*---------------------------------------------------------------------------*/
FoamFile
{
    version     2.0;
    format      ascii;
    class       volVectorField;
    location    "1";
    object      U;
}
// * * * * * * * * * * * * * * * * * * * * * * * * * * * * * * * * * * * * * //

dimensions      [0 1 -1 0 0 0 0];

internalField   nonuniform List<vector> 
20000
(
(7.72392e-05 0 -1.12393e-05)
(8.78784e-05 0 6.00061e-07)
(7.87e-05 0 8.57835e-06)
(6.53142e-05 0 4.80735e-06)
(6.49432e-05 0 -4.43633e-06)
(7.72117e-05 0 -7.83225e-06)
(8.8869e-05 0 -3.82506e-06)
(9.09214e-05 0 1.77263e-06)
(8.36939e-05 0 5.45491e-06)
(7.13639e-05 0 6.87507e-06)
(5.87685e-05 0 5.72031e-06)
(4.96381e-05 0 3.41012e-06)
(4.51143e-05 0 1.11365e-06)
(4.49357e-05 0 -9.34981e-07)
(4.69703e-05 0 -1.09968e-06)
(4.62182e-05 0 1.85173e-06)
(4.02573e-05 0 4.1091e-06)
(3.14692e-05 0 4.67904e-06)
(2.23198e-05 0 4.47033e-06)
(1.44456e-05 0 3.40387e-06)
(9.55317e-06 0 1.48855e-06)
(8.49116e-06 0 -4.26547e-07)
(1.06981e-05 0 -1.78042e-06)
(1.51089e-05 0 -2.6303e-06)
(2.09615e-05 0 -3.22232e-06)
(2.74872e-05 0 -3.30336e-06)
(3.29754e-05 0 -2.18487e-06)
(3.55372e-05 0 -3.76939e-07)
(3.53167e-05 0 5.97401e-07)
(3.41846e-05 0 5.34675e-07)
(3.3645e-05 0 4.97123e-09)
(3.42128e-05 0 -5.7274e-07)
(3.55932e-05 0 -8.07701e-07)
(3.69464e-05 0 -5.45494e-07)
(3.73661e-05 0 1.25745e-07)
(3.62555e-05 0 9.84854e-07)
(3.43388e-05 0 9.31912e-07)
(3.44242e-05 0 -1.01736e-06)
(3.8985e-05 0 -3.54348e-06)
(4.6784e-05 0 -4.25553e-06)
(5.45103e-05 0 -3.47076e-06)
(6.06227e-05 0 -2.64165e-06)
(6.50809e-05 0 -1.81649e-06)
(6.74975e-05 0 -6.00183e-07)
(6.60226e-05 0 2.07509e-06)
(5.69137e-05 0 7.03387e-06)
(4.05218e-05 0 9.35799e-06)
(2.53935e-05 0 5.77032e-06)
(1.70854e-05 0 2.53773e-06)
(1.33578e-05 0 1.18993e-06)
(1.15322e-05 0 6.35627e-07)
(1.06913e-05 0 2.05275e-07)
(1.10488e-05 0 -5.6278e-07)
(1.3413e-05 0 -1.80143e-06)
(1.84339e-05 0 -3.21943e-06)
(2.58661e-05 0 -4.21275e-06)
(3.30634e-05 0 -2.98458e-06)
(3.3636e-05 0 2.41196e-06)
(2.64767e-05 0 4.74733e-06)
(2.00392e-05 0 1.69018e-06)
(1.92649e-05 0 -9.15894e-07)
(2.30865e-05 0 -2.90565e-06)
(3.13818e-05 0 -5.38968e-06)
(4.39331e-05 0 -7.16166e-06)
(5.56906e-05 0 -4.59579e-06)
(5.94038e-05 0 8.82543e-07)
(5.47178e-05 0 3.80345e-06)
(4.64888e-05 0 4.42558e-06)
(3.80217e-05 0 4.0415e-06)
(3.12422e-05 0 2.73805e-06)
(2.76221e-05 0 8.82048e-07)
(2.75755e-05 0 -8.3548e-07)
(3.01231e-05 0 -1.71212e-06)
(3.23666e-05 0 -5.3143e-07)
(3.14839e-05 0 1.41415e-06)
(2.93805e-05 0 6.89319e-07)
(3.11176e-05 0 -2.42643e-06)
(4.17788e-05 0 -8.23481e-06)
(6.76135e-05 0 -1.75999e-05)
(0.00010148 0 -1.6267e-05)
(0.00011789 0 -1.42163e-07)
(0.000111805 0 6.22644e-06)
(9.94447e-05 0 6.13413e-06)
(8.72605e-05 0 6.05008e-06)
(7.53844e-05 0 5.82601e-06)
(6.43694e-05 0 5.18897e-06)
(5.49577e-05 0 4.22272e-06)
(4.70921e-05 0 3.64293e-06)
(3.97181e-05 0 3.731e-06)
(3.14001e-05 0 4.58703e-06)
(2.12984e-05 0 5.51466e-06)
(1.16312e-05 0 4.15259e-06)
(5.68553e-06 0 1.79307e-06)
(3.31198e-06 0 5.80477e-07)
(2.64857e-06 0 8.29303e-08)
(3.08337e-06 0 -5.17726e-07)
(5.54463e-06 0 -1.94354e-06)
(1.09449e-05 0 -3.45677e-06)
(1.68477e-05 0 -2.44602e-06)
(1.9264e-05 0 2.97717e-08)
(1.76101e-05 0 1.62409e-06)
(1.46075e-05 0 1.37849e-06)
(1.40057e-05 0 -7.76614e-07)
(1.80117e-05 0 -3.22946e-06)
(2.45105e-05 0 -3.26929e-06)
(2.83549e-05 0 -5.75156e-07)
(2.67783e-05 0 2.15181e-06)
(2.09563e-05 0 3.67017e-06)
(1.42167e-05 0 3.06942e-06)
(9.99564e-06 0 1.15165e-06)
(1.01148e-05 0 -1.27078e-06)
(1.54278e-05 0 -4.04222e-06)
(2.40518e-05 0 -4.58179e-06)
(2.9554e-05 0 -9.20448e-07)
(2.7488e-05 0 2.98643e-06)
(2.1087e-05 0 3.41457e-06)
(1.6006e-05 0 1.66643e-06)
(1.48822e-05 0 -5.42599e-07)
(1.85967e-05 0 -3.17195e-06)
(2.66659e-05 0 -4.89718e-06)
(3.449e-05 0 -2.92696e-06)
(3.6982e-05 0 4.34979e-07)
(3.464e-05 0 1.90699e-06)
(3.07934e-05 0 1.93961e-06)
(2.72337e-05 0 1.62009e-06)
(2.41563e-05 0 1.45729e-06)
(2.11783e-05 0 1.52071e-06)
(1.83173e-05 0 1.34038e-06)
(1.63018e-05 0 6.75064e-07)
(1.57719e-05 0 -1.45191e-07)
(1.68123e-05 0 -8.95135e-07)
(1.90687e-05 0 -1.36132e-06)
(2.1504e-05 0 -1.07399e-06)
(2.26216e-05 0 -4.36347e-08)
(2.17471e-05 0 9.18191e-07)
(1.94693e-05 0 1.35961e-06)
(1.6666e-05 0 1.44364e-06)
(1.38624e-05 0 1.35994e-06)
(1.12988e-05 0 1.20371e-06)
(8.97868e-06 0 1.11639e-06)
(6.69166e-06 0 1.17063e-06)
(4.41273e-06 0 1.1083e-06)
(2.47533e-06 0 8.29093e-07)
(1.01503e-06 0 6.31211e-07)
(-2.89885e-07 0 6.73706e-07)
(-1.80397e-06 0 8.40381e-07)
(-3.43885e-06 0 7.94498e-07)
(-4.68093e-06 0 4.47587e-07)
(-5.14975e-06 0 2.12296e-08)
(-4.87509e-06 0 -2.9589e-07)
(-4.12025e-06 0 -4.58948e-07)
(-3.13374e-06 0 -5.27562e-07)
(-2.15604e-06 0 -4.50136e-07)
(-1.46616e-06 0 -2.39746e-07)
(-1.20173e-06 0 -2.46821e-08)
(-1.45376e-06 0 2.76707e-07)
(-2.95893e-06 0 1.22847e-06)
(-8.70537e-06 0 4.51797e-06)
(-2.35945e-05 0 1.03712e-05)
(-4.44882e-05 0 1.05225e-05)
(-5.75238e-05 0 2.51301e-06)
(-5.76938e-05 0 -2.34291e-06)
(-5.4042e-05 0 -1.30897e-06)
(-5.54306e-05 0 2.69764e-06)
(-6.78589e-05 0 9.73063e-06)
(-9.53591e-05 0 1.77696e-05)
(-0.000128259 0 1.51305e-05)
(-0.000145558 0 2.1684e-06)
(-0.000137074 0 -1.06526e-05)
(-0.000108976 0 -1.74452e-05)
(-7.52628e-05 0 -1.62684e-05)
(-4.73023e-05 0 -1.16921e-05)
(-2.82807e-05 0 -7.32956e-06)
(-1.71837e-05 0 -3.7675e-06)
(-1.20677e-05 0 -1.34843e-06)
(-1.08439e-05 0 1.24578e-07)
(-1.23303e-05 0 1.36182e-06)
(-1.65094e-05 0 2.81728e-06)
(-2.32482e-05 0 3.92148e-06)
(-3.08556e-05 0 3.68592e-06)
(-3.73154e-05 0 2.7739e-06)
(-4.23266e-05 0 2.23731e-06)
(-4.67376e-05 0 2.17366e-06)
(-5.15356e-05 0 2.6243e-06)
(-5.79807e-05 0 3.82084e-06)
(-6.80094e-05 0 6.2079e-06)
(-8.43789e-05 0 1.01616e-05)
(-0.000109063 0 1.45229e-05)
(-0.000140698 0 1.7112e-05)
(-0.000175214 0 1.74036e-05)
(-0.00020816 0 1.5542e-05)
(-0.000232026 0 8.32403e-06)
(-0.000229593 0 -1.07567e-05)
(-0.000189846 0 -2.89902e-05)
(-0.00014636 0 -1.4496e-05)
(-0.000149982 0 1.81182e-05)
(-0.000225751 0 5.76505e-05)
(-0.000386057 0 0.000102655)
(-0.000602367 0 0.000113655)
(-0.00082394 0 0.000107918)
(7.09583e-05 0 -2.74368e-05)
(9.77586e-05 0 -2.06418e-05)
(0.000160074 0 -2.33173e-05)
(0.000231986 0 -2.18227e-05)
(0.000257113 0 -2.56295e-06)
(0.000226145 0 8.99428e-06)
(0.000179508 0 1.43279e-05)
(0.000143054 0 1.80209e-05)
(0.000118996 0 2.04924e-05)
(0.000102489 0 2.06745e-05)
(9.00171e-05 0 1.69883e-05)
(8.06345e-05 0 1.06552e-05)
(7.64536e-05 0 2.57323e-06)
(8.19294e-05 0 -7.69171e-06)
(9.77514e-05 0 -1.21996e-05)
(0.000110523 0 9.32406e-07)
(0.000106417 0 1.50949e-05)
(8.91541e-05 0 1.97441e-05)
(6.75472e-05 0 2.01615e-05)
(4.53364e-05 0 1.77977e-05)
(2.67692e-05 0 1.05543e-05)
(1.65999e-05 0 1.73891e-06)
(1.40639e-05 0 -3.61678e-06)
(1.49105e-05 0 -6.05131e-06)
(1.67375e-05 0 -7.48093e-06)
(1.89833e-05 0 -7.81624e-06)
(2.09189e-05 0 -5.09579e-06)
(2.11031e-05 0 -2.12069e-07)
(1.91867e-05 0 2.56939e-06)
(1.65375e-05 0 2.344e-06)
(1.45356e-05 0 7.37217e-07)
(1.38937e-05 0 -1.2309e-06)
(1.52059e-05 0 -2.84218e-06)
(1.92614e-05 0 -3.91971e-06)
(2.74052e-05 0 -5.0636e-06)
(4.15182e-05 0 -6.82816e-06)
(6.10605e-05 0 -8.88059e-06)
(7.84592e-05 0 -8.68908e-06)
(8.2436e-05 0 -4.40941e-06)
(7.12534e-05 0 -5.98887e-09)
(5.4679e-05 0 1.1278e-06)
(4.14535e-05 0 -1.272e-07)
(3.38879e-05 0 -1.22348e-06)
(3.11099e-05 0 -8.31862e-07)
(3.24138e-05 0 2.47784e-06)
(3.751e-05 0 1.06439e-05)
(4.10872e-05 0 1.85627e-05)
(3.47853e-05 0 1.79958e-05)
(2.19885e-05 0 1.14171e-05)
(1.25019e-05 0 5.52483e-06)
(8.03365e-06 0 2.59451e-06)
(6.24426e-06 0 8.76691e-07)
(6.05792e-06 0 -1.40536e-06)
(7.5943e-06 0 -4.85943e-06)
(1.12712e-05 0 -8.85922e-06)
(1.74944e-05 0 -1.22284e-05)
(2.80973e-05 0 -1.27692e-05)
(4.51463e-05 0 -5.42503e-06)
(5.71772e-05 0 7.71274e-06)
(5.2468e-05 0 9.87153e-06)
(4.24591e-05 0 1.6859e-06)
(3.91016e-05 0 -5.97147e-06)
(4.34694e-05 0 -1.4987e-05)
(5.96027e-05 0 -2.6249e-05)
(9.31323e-05 0 -3.07955e-05)
(0.000137181 0 -2.06797e-05)
(0.00017451 0 -7.27694e-06)
(0.000195041 0 3.20373e-06)
(0.00019666 0 1.21113e-05)
(0.000181912 0 1.61962e-05)
(0.000161751 0 1.12045e-05)
(0.000147745 0 2.8944e-06)
(0.000139576 0 1.79476e-07)
(0.00012933 0 5.57958e-06)
(0.000114996 0 1.05196e-05)
(0.000104302 0 4.38166e-06)
(0.00010679 0 -1.03433e-05)
(0.000122481 0 -2.66707e-05)
(0.000128213 0 -3.07306e-05)
(0.000101222 0 -1.00128e-05)
(6.18152e-05 0 1.66018e-05)
(3.77303e-05 0 1.96516e-05)
(2.91339e-05 0 1.36659e-05)
(3.1476e-05 0 8.3604e-06)
(4.58159e-05 0 1.0519e-06)
(6.74392e-05 0 -6.45236e-07)
(8.01016e-05 0 6.80623e-06)
(7.59779e-05 0 1.30487e-05)
(6.32121e-05 0 1.44649e-05)
(5.08993e-05 0 1.44838e-05)
(4.06916e-05 0 1.59272e-05)
(2.95101e-05 0 1.45888e-05)
(1.83065e-05 0 8.50608e-06)
(1.11121e-05 0 3.43545e-06)
(8.321e-06 0 6.8245e-07)
(9.41614e-06 0 -2.64719e-06)
(1.68636e-05 0 -9.72281e-06)
(3.23224e-05 0 -1.65366e-05)
(5.02192e-05 0 -1.31657e-05)
(6.37903e-05 0 -5.23788e-06)
(7.12335e-05 0 1.10238e-06)
(7.08497e-05 0 5.28653e-06)
(6.44232e-05 0 2.34376e-06)
(5.92183e-05 0 -5.15097e-06)
(5.70038e-05 0 -5.63207e-06)
(5.49956e-05 0 -4.85798e-08)
(5.28786e-05 0 5.31888e-06)
(4.93769e-05 0 9.82675e-06)
(4.27453e-05 0 1.0284e-05)
(3.71571e-05 0 3.74634e-06)
(4.09554e-05 0 -7.7829e-06)
(5.61031e-05 0 -1.79908e-05)
(7.42376e-05 0 -1.73916e-05)
(8.83392e-05 0 -7.71455e-06)
(9.92359e-05 0 9.49858e-07)
(0.000107102 0 3.98581e-06)
(0.000110367 0 2.91093e-06)
(0.00010936 0 3.438e-07)
(0.000103532 0 -1.94491e-06)
(9.14559e-05 0 -2.11681e-06)
(7.63003e-05 0 1.62405e-06)
(6.3948e-05 0 5.74433e-06)
(5.63986e-05 0 6.48896e-06)
(5.24607e-05 0 5.14213e-06)
(5.04372e-05 0 4.00083e-06)
(4.82189e-05 0 4.37224e-06)
(4.34931e-05 0 6.30956e-06)
(3.54118e-05 0 7.49386e-06)
(2.65253e-05 0 5.42352e-06)
(2.03736e-05 0 1.78786e-06)
(1.79136e-05 0 -1.40846e-06)
(1.83654e-05 0 -3.55622e-06)
(2.05156e-05 0 -3.46469e-06)
(2.2774e-05 0 -1.02893e-06)
(2.40338e-05 0 1.51822e-06)
(2.46153e-05 0 2.45591e-06)
(2.55101e-05 0 2.25576e-06)
(2.6835e-05 0 2.02652e-06)
(2.74627e-05 0 2.47306e-06)
(2.57594e-05 0 3.8705e-06)
(2.09563e-05 0 5.50661e-06)
(1.42901e-05 0 5.71741e-06)
(8.04688e-06 0 4.40063e-06)
(3.46634e-06 0 3.10052e-06)
(4.94269e-07 0 2.48139e-06)
(-1.22941e-06 0 2.27046e-06)
(-2.17347e-06 0 1.94337e-06)
(-2.97386e-06 0 1.34119e-06)
(-3.99595e-06 0 6.18527e-07)
(-4.96101e-06 0 -2.02789e-07)
(-5.1177e-06 0 -1.15019e-06)
(-4.07714e-06 0 -1.86339e-06)
(-2.56311e-06 0 -1.60603e-06)
(-1.59705e-06 0 -7.39789e-07)
(-1.50205e-06 0 1.15934e-07)
(-2.8473e-06 0 1.73337e-06)
(-9.68754e-06 0 8.11723e-06)
(-3.38445e-05 0 2.75326e-05)
(-7.57465e-05 0 4.41478e-05)
(-0.000108442 0 3.03353e-05)
(-0.000121344 0 8.63759e-06)
(-0.000127055 0 -2.58661e-06)
(-0.000127301 0 -4.47111e-06)
(-0.000120485 0 4.3231e-07)
(-0.000109975 0 1.39144e-05)
(-9.68431e-05 0 2.79545e-05)
(-8.27939e-05 0 2.37966e-05)
(-7.77216e-05 0 5.72899e-06)
(-8.88683e-05 0 -1.15506e-05)
(-0.000112327 0 -2.11861e-05)
(-0.000139042 0 -1.95257e-05)
(-0.000162271 0 -1.31668e-05)
(-0.000175237 0 -1.19098e-05)
(-0.000168641 0 -1.68806e-05)
(-0.000141622 0 -2.03707e-05)
(-0.000109106 0 -1.45928e-05)
(-8.70999e-05 0 -4.44076e-06)
(-7.78464e-05 0 3.54547e-06)
(-7.48242e-05 0 6.90979e-06)
(-7.07317e-05 0 4.21249e-06)
(-6.18744e-05 0 -1.50148e-07)
(-5.0703e-05 0 -9.98802e-07)
(-4.21875e-05 0 1.30519e-06)
(-3.86888e-05 0 4.79209e-06)
(-3.97495e-05 0 9.15883e-06)
(-4.38932e-05 0 1.50424e-05)
(-4.8237e-05 0 2.20404e-05)
(-4.925e-05 0 2.83414e-05)
(-4.69074e-05 0 3.25857e-05)
(-4.60248e-05 0 3.55629e-05)
(-5.43159e-05 0 3.86194e-05)
(-8.33596e-05 0 3.81564e-05)
(-0.000147849 0 2.1468e-05)
(-0.000240498 0 -8.31287e-06)
(-0.000315939 0 -3.21901e-06)
(-0.000362743 0 5.72677e-05)
(-0.000410778 0 0.000142305)
(-0.000439495 0 0.000207023)
(-0.000418266 0 0.000204368)
(-0.000369032 0 0.000189544)
(7.70807e-05 0 -4.34758e-05)
(9.57901e-05 0 -5.01125e-05)
(0.000100592 0 -6.09645e-05)
(8.63878e-05 0 -4.18828e-05)
(7.07788e-05 0 7.97849e-06)
(6.63905e-05 0 3.38097e-05)
(6.7969e-05 0 3.45707e-05)
(7.35381e-05 0 2.86625e-05)
(8.28573e-05 0 2.45899e-05)
(9.29496e-05 0 2.29917e-05)
(9.77773e-05 0 2.23156e-05)
(9.43595e-05 0 1.81282e-05)
(8.77896e-05 0 5.8509e-06)
(8.54872e-05 0 -1.41428e-05)
(8.58243e-05 0 -2.19076e-05)
(8.20364e-05 0 1.65703e-06)
(7.73042e-05 0 2.32081e-05)
(7.63101e-05 0 2.98878e-05)
(7.47852e-05 0 3.31495e-05)
(6.59469e-05 0 3.58588e-05)
(4.81744e-05 0 2.88329e-05)
(3.08435e-05 0 1.09605e-05)
(2.2583e-05 0 -2.04184e-06)
(2.11025e-05 0 -6.99231e-06)
(2.14651e-05 0 -8.72953e-06)
(2.13217e-05 0 -8.67012e-06)
(1.97589e-05 0 -4.61469e-06)
(1.67222e-05 0 2.15934e-06)
(1.32958e-05 0 5.54071e-06)
(1.08947e-05 0 4.42302e-06)
(1.02528e-05 0 1.30204e-06)
(1.19404e-05 0 -2.84147e-06)
(1.72307e-05 0 -7.83406e-06)
(2.82811e-05 0 -1.40337e-05)
(4.76045e-05 0 -2.24168e-05)
(7.53849e-05 0 -3.13683e-05)
(0.000104514 0 -3.30123e-05)
(0.000122862 0 -2.03034e-05)
(0.00012395 0 2.14015e-06)
(0.000110267 0 1.83093e-05)
(8.81302e-05 0 2.15239e-05)
(6.45333e-05 0 1.6299e-05)
(4.52321e-05 0 9.21709e-06)
(3.21796e-05 0 4.5581e-06)
(2.41531e-05 0 3.81057e-06)
(2.00636e-05 0 8.30439e-06)
(2.02615e-05 0 1.71271e-05)
(2.31713e-05 0 2.28233e-05)
(2.4025e-05 0 1.85327e-05)
(2.14674e-05 0 1.04534e-05)
(1.83465e-05 0 5.25503e-06)
(1.63137e-05 0 2.03834e-06)
(1.56351e-05 0 -1.70205e-06)
(1.64187e-05 0 -6.88278e-06)
(1.83129e-05 0 -1.2407e-05)
(2.1051e-05 0 -1.76418e-05)
(2.63751e-05 0 -2.32827e-05)
(3.8623e-05 0 -2.42084e-05)
(6.11565e-05 0 -8.0682e-06)
(8.03345e-05 0 1.11837e-05)
(7.69959e-05 0 1.37212e-05)
(6.08382e-05 0 1.50847e-06)
(5.3029e-05 0 -1.90255e-05)
(6.39675e-05 0 -4.92822e-05)
(9.75673e-05 0 -7.48917e-05)
(0.000137432 0 -6.04971e-05)
(0.000160719 0 -2.80747e-05)
(0.000170507 0 -6.31812e-06)
(0.000181626 0 8.89547e-06)
(0.000197067 0 1.8719e-05)
(0.000207085 0 1.88242e-05)
(0.000201956 0 1.44095e-05)
(0.000184388 0 1.44014e-05)
(0.000166827 0 1.91648e-05)
(0.000160535 0 1.75598e-05)
(0.000167217 0 1.3541e-06)
(0.000173674 0 -1.62609e-05)
(0.00015859 0 -2.13605e-05)
(0.000123024 0 -6.20586e-06)
(9.02606e-05 0 2.52159e-05)
(6.63429e-05 0 4.46981e-05)
(4.64319e-05 0 3.55511e-05)
(3.4637e-05 0 1.81578e-05)
(3.58005e-05 0 3.62908e-07)
(5.01658e-05 0 -1.96558e-05)
(6.93503e-05 0 -2.07453e-05)
(8.6825e-05 0 -3.23076e-06)
(0.000102562 0 1.14726e-05)
(0.000115007 0 1.6362e-05)
(0.000123758 0 1.6148e-05)
(0.000124566 0 2.36634e-05)
(0.0001095 0 3.30998e-05)
(8.31231e-05 0 2.75757e-05)
(6.0188e-05 0 1.44954e-05)
(5.07464e-05 0 1.85524e-06)
(6.08777e-05 0 -1.50464e-05)
(8.54538e-05 0 -2.93472e-05)
(9.90806e-05 0 -2.59978e-05)
(9.34939e-05 0 -1.60145e-05)
(8.63539e-05 0 -8.82025e-06)
(8.87212e-05 0 -5.12579e-06)
(0.000102027 0 -1.40764e-06)
(0.000116024 0 1.46814e-06)
(0.000115411 0 1.54254e-06)
(0.00010255 0 2.74994e-06)
(9.14517e-05 0 4.6755e-06)
(8.77577e-05 0 6.40585e-06)
(9.11317e-05 0 8.86747e-06)
(0.000100437 0 8.5693e-06)
(0.000109895 0 1.59161e-06)
(0.00010994 0 -9.47188e-06)
(9.54744e-05 0 -1.69837e-05)
(7.35108e-05 0 -1.45695e-05)
(5.61997e-05 0 -7.32718e-06)
(4.80186e-05 0 -2.15316e-06)
(4.69332e-05 0 3.07887e-07)
(4.91907e-05 0 1.06614e-06)
(5.09843e-05 0 1.40201e-06)
(5.10073e-05 0 2.80193e-06)
(5.0251e-05 0 5.96919e-06)
(4.85203e-05 0 1.04242e-05)
(4.36059e-05 0 1.42109e-05)
(3.53182e-05 0 1.38595e-05)
(2.72259e-05 0 9.80188e-06)
(2.24453e-05 0 6.14524e-06)
(2.16337e-05 0 5.25771e-06)
(2.46545e-05 0 7.12904e-06)
(3.01842e-05 0 9.22598e-06)
(3.42063e-05 0 8.55582e-06)
(3.35363e-05 0 5.47716e-06)
(2.96826e-05 0 1.21602e-06)
(2.55386e-05 0 -2.48851e-06)
(2.22325e-05 0 -3.37661e-06)
(2.02248e-05 0 -1.36763e-06)
(1.97117e-05 0 1.11014e-06)
(1.99089e-05 0 2.08534e-06)
(1.97253e-05 0 1.9151e-06)
(1.88439e-05 0 1.92371e-06)
(1.77024e-05 0 3.08963e-06)
(1.66467e-05 0 6.01304e-06)
(1.4847e-05 0 9.96683e-06)
(1.11932e-05 0 1.15772e-05)
(6.67406e-06 0 9.3032e-06)
(3.20662e-06 0 6.24592e-06)
(1.14476e-06 0 4.36992e-06)
(-1.58795e-07 0 3.40916e-06)
(-1.29113e-06 0 2.88107e-06)
(-2.79244e-06 0 2.70518e-06)
(-5.16461e-06 0 2.64879e-06)
(-8.25945e-06 0 1.82685e-06)
(-1.10438e-05 0 -2.38809e-07)
(-1.20329e-05 0 -2.8262e-06)
(-1.05295e-05 0 -3.66071e-06)
(-8.65935e-06 0 -1.52127e-06)
(-1.07592e-05 0 2.9023e-06)
(-2.34197e-05 0 1.29528e-05)
(-5.28547e-05 0 3.3173e-05)
(-7.83985e-05 0 5.21777e-05)
(-6.87e-05 0 5.17063e-05)
(-4.2172e-05 0 2.89444e-05)
(-3.06485e-05 0 1.14069e-05)
(-3.44165e-05 0 4.12285e-06)
(-4.69485e-05 0 1.59753e-06)
(-6.20213e-05 0 2.62033e-06)
(-6.87647e-05 0 7.95992e-06)
(-6.11992e-05 0 1.32118e-05)
(-4.88411e-05 0 1.21318e-05)
(-4.40536e-05 0 7.53396e-06)
(-5.001e-05 0 3.74762e-06)
(-6.4382e-05 0 1.34651e-06)
(-8.07111e-05 0 9.861e-07)
(-9.1922e-05 0 7.60686e-07)
(-0.000100236 0 -4.5563e-06)
(-0.000115919 0 -1.51481e-05)
(-0.000141726 0 -2.33157e-05)
(-0.000163792 0 -2.20973e-05)
(-0.000165403 0 -1.73314e-05)
(-0.000144229 0 -1.39915e-05)
(-0.000111804 0 -1.10002e-05)
(-8.31077e-05 0 -1.06665e-05)
(-6.53843e-05 0 -1.18519e-05)
(-5.56664e-05 0 -1.01863e-05)
(-4.76762e-05 0 -6.01302e-06)
(-3.85259e-05 0 -5.38727e-07)
(-2.95586e-05 0 6.58298e-06)
(-2.27782e-05 0 1.49816e-05)
(-1.87227e-05 0 2.23894e-05)
(-1.71639e-05 0 2.74467e-05)
(-1.75721e-05 0 3.1546e-05)
(-1.97641e-05 0 3.7912e-05)
(-2.63351e-05 0 5.11323e-05)
(-4.6584e-05 0 7.4936e-05)
(-9.91531e-05 0 0.000101747)
(-0.000204925 0 0.000109829)
(-0.000356614 0 0.000105769)
(-0.000489156 0 0.000127625)
(-0.000533321 0 0.000164147)
(-0.000495363 0 0.000175939)
(-0.000432336 0 0.000151197)
(-0.000375155 0 0.0001363)
(6.67388e-05 0 -5.52954e-05)
(6.07044e-05 0 -5.0968e-05)
(4.69965e-05 0 -5.12031e-05)
(3.91835e-05 0 -2.9627e-05)
(4.31154e-05 0 7.39987e-06)
(5.41475e-05 0 2.77445e-05)
(6.67803e-05 0 2.64244e-05)
(8.16192e-05 0 1.64007e-05)
(0.000101829 0 7.32265e-06)
(0.000127499 0 4.49701e-06)
(0.000155443 0 8.0384e-06)
(0.000179391 0 1.18751e-05)
(0.000188218 0 9.84702e-06)
(0.000169842 0 2.53931e-06)
(0.000125814 0 5.10051e-06)
(8.17929e-05 0 2.24581e-05)
(5.8479e-05 0 3.04531e-05)
(5.25147e-05 0 2.96012e-05)
(5.6681e-05 0 3.07947e-05)
(6.86048e-05 0 3.51282e-05)
(8.33615e-05 0 3.25792e-05)
(9.11265e-05 0 1.67801e-05)
(9.02236e-05 0 1.30202e-06)
(8.73787e-05 0 -6.01074e-06)
(8.52635e-05 0 -7.95851e-06)
(8.2882e-05 0 -6.91633e-06)
(7.9832e-05 0 -1.75569e-06)
(7.59162e-05 0 6.25288e-06)
(7.08401e-05 0 9.94964e-06)
(6.67505e-05 0 6.50478e-06)
(6.83986e-05 0 -1.78592e-06)
(8.05784e-05 0 -1.36209e-05)
(0.000104525 0 -2.62914e-05)
(0.00013232 0 -3.44223e-05)
(0.000148211 0 -3.72423e-05)
(0.000141767 0 -3.78793e-05)
(0.000118677 0 -3.25407e-05)
(9.62512e-05 0 -1.66964e-05)
(8.85742e-05 0 5.12229e-06)
(9.58782e-05 0 2.17054e-05)
(0.000106876 0 2.92668e-05)
(0.000107695 0 3.13343e-05)
(9.08525e-05 0 3.03256e-05)
(6.29216e-05 0 2.44331e-05)
(3.83373e-05 0 1.65463e-05)
(2.44051e-05 0 1.35903e-05)
(2.01957e-05 0 1.58527e-05)
(2.3152e-05 0 1.82316e-05)
(3.03025e-05 0 1.51202e-05)
(3.89051e-05 0 7.82097e-06)
(4.86323e-05 0 1.28124e-06)
(6.04025e-05 0 -3.7253e-06)
(7.22776e-05 0 -7.1349e-06)
(7.8674e-05 0 -8.62999e-06)
(7.68895e-05 0 -1.07695e-05)
(7.09568e-05 0 -1.60847e-05)
(6.53147e-05 0 -2.45219e-05)
(6.17585e-05 0 -3.1661e-05)
(6.32239e-05 0 -2.46145e-05)
(7.26342e-05 0 -8.58305e-07)
(8.55812e-05 0 1.61548e-05)
(9.50157e-05 0 5.798e-06)
(0.000111513 0 -3.20029e-05)
(0.00014802 0 -8.37506e-05)
(0.000159158 0 -8.51617e-05)
(0.000116331 0 -4.72642e-05)
(6.99502e-05 0 -1.82137e-05)
(4.8746e-05 0 -4.76338e-06)
(4.25654e-05 0 2.40279e-06)
(4.4006e-05 0 8.32982e-06)
(5.05787e-05 0 1.26228e-05)
(6.0581e-05 0 1.57375e-05)
(7.19768e-05 0 1.92455e-05)
(8.18703e-05 0 2.19882e-05)
(8.59273e-05 0 1.6971e-05)
(8.00245e-05 0 1.16409e-06)
(6.57305e-05 0 -8.2346e-06)
(5.41196e-05 0 -2.6917e-06)
(5.65131e-05 0 8.29849e-06)
(7.69196e-05 0 2.30679e-05)
(0.000107723 0 3.99609e-05)
(0.000123297 0 4.46245e-05)
(0.000114914 0 2.92627e-05)
(0.000106383 0 -3.37424e-06)
(0.000105844 0 -2.97455e-05)
(0.000104557 0 -2.85531e-05)
(0.000106607 0 -1.49477e-05)
(0.000118976 0 -4.91602e-06)
(0.000140308 0 -1.02604e-06)
(0.000161332 0 3.76052e-06)
(0.000173652 0 2.29228e-05)
(0.00017871 0 4.38486e-05)
(0.000174932 0 4.69816e-05)
(0.000159473 0 3.34836e-05)
(0.000143016 0 8.76589e-06)
(0.000128557 0 -1.76292e-05)
(0.000101102 0 -2.38859e-05)
(6.6659e-05 0 -1.06429e-05)
(4.40518e-05 0 -3.1755e-06)
(3.34932e-05 0 -3.96061e-06)
(2.95481e-05 0 -8.40766e-06)
(2.81095e-05 0 -9.99327e-06)
(2.75361e-05 0 -3.36918e-06)
(3.0571e-05 0 3.95796e-06)
(3.75803e-05 0 6.18635e-06)
(4.51157e-05 0 4.80153e-06)
(5.20502e-05 0 3.03928e-06)
(5.92399e-05 0 1.67038e-06)
(6.54871e-05 0 2.13638e-07)
(6.72227e-05 0 -1.24598e-06)
(6.22675e-05 0 -1.72451e-06)
(5.2241e-05 0 -2.38656e-07)
(4.06849e-05 0 2.20515e-06)
(3.0125e-05 0 3.76913e-06)
(2.14697e-05 0 3.58686e-06)
(1.4673e-05 0 2.44988e-06)
(9.68957e-06 0 1.65016e-06)
(6.92354e-06 0 1.79038e-06)
(6.58941e-06 0 2.72476e-06)
(8.68944e-06 0 4.70264e-06)
(1.35904e-05 0 8.52049e-06)
(2.09355e-05 0 1.36839e-05)
(2.73577e-05 0 1.6252e-05)
(2.88397e-05 0 1.40196e-05)
(2.57357e-05 0 9.81214e-06)
(2.12647e-05 0 6.87338e-06)
(1.77481e-05 0 6.00918e-06)
(1.62539e-05 0 6.31036e-06)
(1.68636e-05 0 6.83966e-06)
(1.85073e-05 0 6.21957e-06)
(1.92429e-05 0 3.59174e-06)
(1.77797e-05 0 7.42877e-07)
(1.46142e-05 0 -1.36419e-07)
(1.12146e-05 0 7.99564e-07)
(8.52715e-06 0 2.14342e-06)
(6.52167e-06 0 2.86034e-06)
(5.01059e-06 0 2.83476e-06)
(4.13359e-06 0 2.76246e-06)
(4.07851e-06 0 3.44744e-06)
(4.98924e-06 0 5.80024e-06)
(6.51868e-06 0 1.04499e-05)
(6.95452e-06 0 1.43122e-05)
(5.37696e-06 0 1.26649e-05)
(3.23701e-06 0 8.49159e-06)
(1.52942e-06 0 5.89369e-06)
(-4.07666e-07 0 5.12603e-06)
(-3.77222e-06 0 5.66108e-06)
(-9.10876e-06 0 6.76302e-06)
(-1.4989e-05 0 6.84332e-06)
(-1.95654e-05 0 5.30362e-06)
(-2.35164e-05 0 3.01969e-06)
(-2.94208e-05 0 8.08901e-07)
(-3.96107e-05 0 1.39059e-06)
(-5.85634e-05 0 1.05101e-05)
(-9.07395e-05 0 2.5147e-05)
(-0.000118438 0 3.10671e-05)
(-0.000110958 0 3.70138e-05)
(-7.23656e-05 0 3.52883e-05)
(-3.58371e-05 0 2.23688e-05)
(-1.74477e-05 0 1.33646e-05)
(-1.22544e-05 0 1.02699e-05)
(-1.42629e-05 0 1.10364e-05)
(-2.0821e-05 0 1.37742e-05)
(-3.01684e-05 0 1.48639e-05)
(-3.99918e-05 0 1.22832e-05)
(-4.74862e-05 0 8.81741e-06)
(-4.96066e-05 0 6.28851e-06)
(-4.61907e-05 0 5.17392e-06)
(-3.98632e-05 0 5.73655e-06)
(-3.24054e-05 0 6.27177e-06)
(-2.4958e-05 0 4.94256e-06)
(-1.90272e-05 0 2.0843e-06)
(-1.58272e-05 0 -7.65619e-07)
(-1.59652e-05 0 -3.1185e-06)
(-1.99117e-05 0 -5.5919e-06)
(-2.86238e-05 0 -9.04283e-06)
(-4.35183e-05 0 -1.38803e-05)
(-6.33746e-05 0 -1.87604e-05)
(-7.98373e-05 0 -2.21933e-05)
(-8.22008e-05 0 -2.58063e-05)
(-7.10546e-05 0 -2.55818e-05)
(-5.78023e-05 0 -1.94267e-05)
(-4.87524e-05 0 -1.38128e-05)
(-4.11669e-05 0 -9.47483e-06)
(-3.20309e-05 0 -2.5842e-06)
(-2.35509e-05 0 8.88848e-06)
(-1.96664e-05 0 2.05424e-05)
(-2.07315e-05 0 2.88e-05)
(-2.49945e-05 0 3.48637e-05)
(-3.14865e-05 0 4.32783e-05)
(-4.29014e-05 0 6.37519e-05)
(-7.07361e-05 0 0.0001104)
(-0.00012843 0 0.000176546)
(-0.000204024 0 0.000216396)
(-0.000268446 0 0.000215313)
(-0.000316991 0 0.000199168)
(-0.00035271 0 0.000172488)
(-0.000355343 0 0.000132273)
(-0.000318935 0 9.54282e-05)
(-0.000262228 0 7.81807e-05)
(5.31204e-05 0 -4.31546e-05)
(3.57986e-05 0 -3.97525e-05)
(3.12956e-05 0 -4.42077e-05)
(3.50595e-05 0 -3.25734e-05)
(4.70623e-05 0 -5.58837e-06)
(6.45841e-05 0 1.2179e-05)
(7.99939e-05 0 1.39473e-05)
(8.92698e-05 0 4.76313e-06)
(9.42581e-05 0 -6.23794e-06)
(9.61685e-05 0 -9.52239e-06)
(9.6557e-05 0 -6.27492e-06)
(9.96135e-05 0 -8.16231e-07)
(0.000107637 0 5.6877e-06)
(0.000115913 0 1.67989e-05)
(0.000115789 0 3.49922e-05)
(0.000107654 0 4.47229e-05)
(9.95738e-05 0 3.95824e-05)
(9.63656e-05 0 2.96443e-05)
(0.000100937 0 2.20134e-05)
(0.000116302 0 1.66211e-05)
(0.000139488 0 1.31438e-05)
(0.000158987 0 8.95137e-06)
(0.000167789 0 1.23177e-06)
(0.000170599 0 -5.90566e-06)
(0.000173689 0 -9.03864e-06)
(0.000178565 0 -8.3312e-06)
(0.000185859 0 -4.58414e-06)
(0.000197576 0 1.27959e-06)
(0.000212691 0 4.88416e-06)
(0.000225288 0 3.06277e-06)
(0.000228768 0 -3.47178e-06)
(0.000217196 0 -1.25434e-05)
(0.000186326 0 -2.04449e-05)
(0.000141114 0 -2.28525e-05)
(9.58796e-05 0 -1.94686e-05)
(6.14303e-05 0 -1.47598e-05)
(3.94768e-05 0 -1.06166e-05)
(2.82091e-05 0 -4.92706e-06)
(2.58466e-05 0 3.39244e-06)
(3.07547e-05 0 1.12231e-05)
(4.1322e-05 0 1.81836e-05)
(5.50559e-05 0 2.78648e-05)
(6.50106e-05 0 4.0683e-05)
(6.25814e-05 0 4.44358e-05)
(5.10953e-05 0 3.26139e-05)
(4.21128e-05 0 2.04375e-05)
(4.00679e-05 0 1.52598e-05)
(4.33173e-05 0 1.26189e-05)
(4.97678e-05 0 7.1319e-06)
(5.79417e-05 0 -9.67149e-07)
(6.60106e-05 0 -7.72667e-06)
(7.09976e-05 0 -1.14746e-05)
(7.17892e-05 0 -1.20523e-05)
(7.17043e-05 0 -1.00241e-05)
(7.4781e-05 0 -1.06677e-05)
(8.25873e-05 0 -1.80602e-05)
(9.40648e-05 0 -2.83818e-05)
(0.000104709 0 -3.4889e-05)
(0.000112411 0 -3.05538e-05)
(0.000125155 0 -1.7073e-05)
(0.000152449 0 -7.8715e-06)
(0.000187284 0 -1.44457e-05)
(0.00019556 0 -3.6532e-05)
(0.000140472 0 -6.06412e-05)
(5.97079e-05 0 -3.86452e-05)
(1.72544e-05 0 -8.49945e-06)
(7.6161e-06 0 -9.59729e-07)
(6.07276e-06 0 7.30189e-07)
(6.86734e-06 0 2.29525e-06)
(9.39183e-06 0 4.47226e-06)
(1.28151e-05 0 6.48446e-06)
(1.61677e-05 0 8.52096e-06)
(1.94817e-05 0 1.17524e-05)
(2.23939e-05 0 1.66756e-05)
(2.16423e-05 0 1.89781e-05)
(1.54014e-05 0 1.13008e-05)
(8.85558e-06 0 2.46848e-06)
(6.63777e-06 0 4.33943e-07)
(8.31198e-06 0 1.10508e-06)
(1.46025e-05 0 3.56431e-06)
(3.24641e-05 0 1.08e-05)
(7.11126e-05 0 1.9562e-05)
(0.000122154 0 1.1667e-05)
(0.000157284 0 -1.23768e-05)
(0.000161964 0 -2.48847e-05)
(0.000150446 0 -2.0609e-05)
(0.000139583 0 -1.40792e-05)
(0.000132462 0 -1.10316e-05)
(0.000125365 0 -9.14496e-06)
(0.000116672 0 -4.51686e-07)
(0.000112803 0 1.86835e-05)
(0.000120055 0 3.57786e-05)
(0.000134689 0 4.41948e-05)
(0.000145298 0 4.11207e-05)
(0.000138235 0 2.46484e-05)
(0.000109971 0 9.21151e-06)
(7.61481e-05 0 1.0551e-05)
(5.19413e-05 0 1.35701e-05)
(3.67348e-05 0 1.04253e-05)
(2.57739e-05 0 3.95812e-06)
(1.72073e-05 0 -3.81469e-06)
(1.05236e-05 0 -6.46396e-06)
(6.4247e-06 0 -2.22621e-06)
(5.25372e-06 0 9.51094e-07)
(5.94648e-06 0 1.49121e-06)
(7.27984e-06 0 6.27905e-07)
(8.10275e-06 0 -5.44583e-07)
(7.56019e-06 0 -1.39285e-06)
(5.89516e-06 0 -1.3053e-06)
(4.47579e-06 0 -4.33093e-08)
(4.32981e-06 0 2.17399e-06)
(5.38502e-06 0 4.83419e-06)
(7.00443e-06 0 7.06899e-06)
(8.12332e-06 0 8.34625e-06)
(7.39137e-06 0 8.39703e-06)
(4.95364e-06 0 6.87408e-06)
(2.68165e-06 0 4.48141e-06)
(1.57728e-06 0 2.82952e-06)
(1.26902e-06 0 2.328e-06)
(1.43664e-06 0 2.83175e-06)
(2.3771e-06 0 4.54997e-06)
(5.21031e-06 0 7.47605e-06)
(1.10639e-05 0 1.01842e-05)
(1.83942e-05 0 1.1275e-05)
(2.25365e-05 0 1.15184e-05)
(2.03501e-05 0 1.18246e-05)
(1.43054e-05 0 1.06193e-05)
(9.02639e-06 0 8.47337e-06)
(6.15433e-06 0 6.93902e-06)
(5.0893e-06 0 5.54154e-06)
(4.77024e-06 0 3.85324e-06)
(4.2157e-06 0 2.49905e-06)
(3.32832e-06 0 2.16028e-06)
(2.57352e-06 0 2.65731e-06)
(2.06037e-06 0 3.48627e-06)
(1.57059e-06 0 4.01275e-06)
(1.03654e-06 0 3.72749e-06)
(6.12944e-07 0 3.17032e-06)
(4.2834e-07 0 3.27926e-06)
(6.82265e-07 0 4.80376e-06)
(2.01155e-06 0 8.58763e-06)
(4.59585e-06 0 1.31543e-05)
(6.41624e-06 0 1.358e-05)
(5.61066e-06 0 1.05221e-05)
(2.66057e-06 0 8.52089e-06)
(-2.03039e-06 0 9.12689e-06)
(-8.8269e-06 0 1.18213e-05)
(-1.6561e-05 0 1.36734e-05)
(-2.25476e-05 0 1.17997e-05)
(-2.61467e-05 0 8.52282e-06)
(-2.9216e-05 0 6.82074e-06)
(-3.39429e-05 0 7.63915e-06)
(-4.20732e-05 0 1.28806e-05)
(-5.17937e-05 0 2.76934e-05)
(-5.3488e-05 0 4.18342e-05)
(-4.37553e-05 0 3.23457e-05)
(-3.25063e-05 0 1.70064e-05)
(-2.57165e-05 0 9.91362e-06)
(-2.24116e-05 0 7.91001e-06)
(-2.14185e-05 0 8.44089e-06)
(-2.22963e-05 0 1.0878e-05)
(-2.43576e-05 0 1.44982e-05)
(-2.53588e-05 0 1.78715e-05)
(-2.41345e-05 0 1.88896e-05)
(-2.28236e-05 0 1.677e-05)
(-2.35435e-05 0 1.2545e-05)
(-2.59854e-05 0 7.12322e-06)
(-2.83313e-05 0 3.26919e-06)
(-2.87124e-05 0 1.69484e-06)
(-2.64807e-05 0 6.23978e-07)
(-2.22111e-05 0 -1.12666e-06)
(-1.7046e-05 0 -2.9424e-06)
(-1.23506e-05 0 -3.63427e-06)
(-9.0429e-06 0 -3.41954e-06)
(-7.0995e-06 0 -3.28781e-06)
(-6.1475e-06 0 -3.58686e-06)
(-6.28706e-06 0 -4.30218e-06)
(-8.39479e-06 0 -6.37446e-06)
(-1.43796e-05 0 -1.21319e-05)
(-2.51553e-05 0 -2.27284e-05)
(-3.50027e-05 0 -2.99585e-05)
(-3.83783e-05 0 -2.49267e-05)
(-3.90179e-05 0 -1.67231e-05)
(-4.08857e-05 0 -1.22822e-05)
(-4.23098e-05 0 -7.48869e-06)
(-4.14997e-05 0 4.50286e-06)
(-4.2366e-05 0 2.19099e-05)
(-4.79042e-05 0 3.40358e-05)
(-5.34668e-05 0 3.94534e-05)
(-5.55586e-05 0 4.72726e-05)
(-5.76234e-05 0 7.32372e-05)
(-6.71449e-05 0 0.000138271)
(-8.47544e-05 0 0.000223978)
(-9.36971e-05 0 0.000253501)
(-8.2551e-05 0 0.000231484)
(-6.41828e-05 0 0.000213174)
(-5.90128e-05 0 0.000189031)
(-6.91026e-05 0 0.000128453)
(-7.47078e-05 0 6.84455e-05)
(-6.71025e-05 0 4.08512e-05)
(5.9108e-05 0 -2.3383e-05)
(5.00855e-05 0 -3.31799e-05)
(4.73808e-05 0 -4.35725e-05)
(4.52817e-05 0 -3.48736e-05)
(4.37276e-05 0 -1.37368e-05)
(4.62648e-05 0 2.68523e-07)
(5.12123e-05 0 5.5004e-06)
(5.18172e-05 0 3.32912e-06)
(4.4097e-05 0 -2.07204e-06)
(3.24039e-05 0 -3.90563e-06)
(2.32417e-05 0 -3.11793e-06)
(1.89012e-05 0 -2.68918e-06)
(2.13068e-05 0 -2.86867e-06)
(3.57464e-05 0 2.64011e-06)
(6.51675e-05 0 1.98537e-05)
(0.000101746 0 3.14181e-05)
(0.000131237 0 3.14758e-05)
(0.000144097 0 2.80991e-05)
(0.000138062 0 2.50222e-05)
(0.000115634 0 2.06754e-05)
(8.55265e-05 0 1.60112e-05)
(6.11476e-05 0 1.09638e-05)
(4.93385e-05 0 2.22645e-06)
(4.57958e-05 0 -6.1677e-06)
(4.30617e-05 0 -9.13275e-06)
(3.79167e-05 0 -7.9685e-06)
(3.17696e-05 0 -6.09307e-06)
(2.73418e-05 0 -4.50127e-06)
(2.65918e-05 0 -3.69986e-06)
(2.9261e-05 0 -3.61949e-06)
(3.17778e-05 0 -2.78607e-06)
(3.05789e-05 0 -4.58844e-07)