/*--------------------------------*- C++ -*----------------------------------*\
  =========                 |
  \\      /  F ield         | OpenFOAM: The Open Source CFD Toolbox
   \\    /   O peration     | Website:  https://openfoam.org
    \\  /    A nd           | Version:  8
     \\/     M anipulation  |
\*---------------------------------------------------------------------------*/
FoamFile
{
    version     2.0;
    format      ascii;
    class       volScalarField;
    location    "800";
    object      c;
}
// * * * * * * * * * * * * * * * * * * * * * * * * * * * * * * * * * * * * * //

dimensions      [1 -3 0 0 0 0 0];

internalField   nonuniform List<scalar> 
20000
(
0.0049054
0.00491565
0.00490041
0.00503845
0.00526572
0.00543391
0.00547862
0.00548758
0.00547499
0.00545386
0.00542277
0.00542011
0.00561565
0.00476618
0.00342065
0.00594839
0.0145813
0.0116032
0.00567775
0.00408004
0.00502158
0.0053849
0.00544841
0.00546284
0.00547384
0.00544204
0.00538136
0.00523195
0.00513341
0.00515785
0.00519814
0.00518437
0.00518805
0.0052568
0.00537409
0.00548124
0.00552954
0.00551575
0.00544672
0.00535172
0.00529986
0.00534719
0.00548562
0.00563628
0.00573246
0.00576943
0.00571706
0.00560486
0.00545943
0.00531631
0.00523072
0.00520705
0.0052918
0.00548658
0.00575131
0.00589633
0.00464196
0.00434261
0.00519132
0.00544171
0.00549847
0.00553231
0.0055693
0.00558476
0.00550183
0.00538923
0.00498144
0.00469063
0.0049288
0.00503683
0.00527185
0.00551065
0.00559076
0.00558748
0.0055562
0.00552411
0.00550515
0.00549336
0.00546801
0.0053762
0.00617521
0.012546
0.00950439
0.0125738
0.00492902
0.00471072
0.0050835
0.00523327
0.00534628
0.0054055
0.00539915
0.00534216
0.00530678
0.00540388
0.00547307
0.00549691
0.00551763
0.00557102
0.00568213
0.0055378
0.00540009
0.00544777
0.00549398
0.00553408
0.0055811
0.00561043
0.00558552
0.00552072
0.00542136
0.00533274
0.00533677
0.00545708
0.00550528
0.00552885
0.005559
0.00557461
0.00553124
0.00543859
0.00540434
0.00542911
0.005452
0.00545986
0.00545845
0.00545379
0.0054535
0.00546669
0.0054827
0.00549083
0.00549391
0.00549467
0.00549489
0.00549371
0.00549108
0.00548254
0.00545724
0.00537631
0.00529949
0.00539373
0.00550742
0.00554795
0.00553537
0.00551092
0.00549936
0.0055035
0.00552989
0.00558986
0.00562314
0.00557447
0.00554002
0.00551226
0.00549542
0.00547508
0.00542134
0.00532501
0.00539748
0.00595804
0.00627544
0.00622867
0.00589375
0.00560724
0.00549582
0.00546052
0.00543657
0.00546701
0.00547846
0.00549541
0.00549623
0.00550424
0.00550551
0.00551193
0.00550232
0.00548832
0.00548325
0.0054845
0.00548968
0.00549753
0.0054863
0.00531328
0.0054432
0.00569525
0.00563194
0.00557004
0.00537906
0.00501426
0.00469803
0.00905039
0.00500513
0.00543501
0.00550425
0.00550939
0.00551452
0.00551524
0.00550814
0.00550059
0.00549443
0.00548721
0.00548674
0.0054962
0.00551512
0.00551511
0.015758
0.0153821
0.0150159
0.0151225
0.0156027
0.0161691
0.0163833
0.0164191
0.0163598
0.0163073
0.0162162
0.0161974
0.0185555
0.0148121
0.00979127
0.0169994
0.0308449
0.0244762
0.0126314
0.0128149
0.0153033
0.0161212
0.0163558
0.0164351
0.0164991
0.0164911
0.0164254
0.0162226
0.0160212
0.0159741
0.0158273
0.0156901
0.0157516
0.0159459
0.0162026
0.0163891
0.0164608
0.016442
0.0163488
0.0161934
0.0160216
0.0159686
0.0162026
0.0165867
0.0168055
0.0168903
0.0168191
0.016686
0.0165112
0.0163504
0.0161921
0.0161471
0.0163455
0.016733
0.0170379
0.0167797
0.0141337
0.0135206
0.0155772
0.0163142
0.0164757
0.0165432
0.0166117
0.0166557
0.0166508
0.0165379
0.0158985
0.0154581
0.015463
0.0149751
0.0149596
0.0160602
0.016485
0.0165474
0.0165265
0.0164995
0.0164852
0.0164773
0.0164683
0.016367
0.0157806
0.0185139
0.00830974
0.0186542
0.0139997
0.0152532
0.0156766
0.0158716
0.0161182
0.0163059
0.0163483
0.0162561
0.0162014
0.0162564
0.0163416
0.0164118
0.0164919
0.016671
0.0169514
0.0165876
0.0162169
0.0163058
0.016425
0.0165348
0.016592
0.0166078
0.0165673
0.0164829
0.0163619
0.0161959
0.0162484
0.016603
0.0165357
0.0164782
0.0165237
0.0165269
0.0164142
0.016234
0.0162086
0.0163111
0.0163813
0.0164
0.0163887
0.0163554
0.016341
0.0163837
0.0164357
0.0164579
0.0164647
0.0164655
0.0164618
0.0164504
0.0164137
0.0163151
0.0162012
0.0161609
0.0161677
0.0163311
0.0164844
0.016531
0.0164861
0.0164274
0.0164039
0.0164123
0.0164702
0.0167085
0.0169166
0.0168214
0.0166741
0.0165473
0.0164626
0.0163812
0.0162573
0.0161267
0.0163861
0.0175113
0.0179124
0.0175501
0.0169641
0.0166256
0.0166185
0.0165066
0.0164889
0.0163959
0.0164514
0.0164424
0.0164756
0.0164764
0.0164952
0.016488
0.0164646
0.0164381
0.016429
0.0164376
0.0164559
0.0164752
0.0164118
0.0160037
0.01628
0.0169304
0.0169579
0.0167599
0.0158126
0.0153734
0.0144151
0.0193577
0.0155255
0.0164304
0.0164878
0.0164899
0.0164939
0.0164938
0.0164848
0.0164767
0.0164707
0.0164648
0.0164701
0.0164939
0.0165028
0.0165222
0.0262482
0.0254262
0.0250932
0.0248548
0.0257462
0.0259579
0.0264282
0.0267018
0.0269906
0.0269944
0.0266948
0.0266848
0.0382488
0.0307302
0.0169165
0.024037
0.0353963
0.0316379
0.0222907
0.0227923
0.0255228
0.0268334
0.0272148
0.0273529
0.027438
0.0274782
0.0274613
0.0273509
0.027209
0.0270255
0.0267755
0.0265621
0.0266282
0.0268976
0.0271354
0.0272295
0.027238
0.0272417
0.0272565
0.0272316
0.0270823
0.0267883
0.0267899
0.0271157
0.0274318
0.0276021
0.027595
0.0275335
0.0274564
0.0274154
0.0273514
0.0274171
0.0276585
0.0279957
0.0281091
0.0275637
0.0247671
0.0237544
0.0258599
0.0270361
0.0273203
0.0274246
0.0274749
0.0274905
0.0274592
0.027432
0.0273799
0.0272854
0.0269673
0.0256265
0.0248665
0.0260696
0.026807
0.0271901
0.0273427
0.0273992
0.0274216
0.0274399
0.0274629
0.0275119
0.0277862
0.0290536
0.0158894
0.0289889
0.0267755
0.0267282
0.0267197
0.0267414
0.0269276
0.027159
0.0273143
0.0273472
0.0273147
0.0272822
0.0272761
0.0272927
0.0273922
0.0276646
0.0279662
0.0275202
0.0270812
0.0270777
0.0272281
0.0273948
0.0274605
0.02744
0.0274169
0.0273963
0.0273407
0.0272048
0.027358
0.0287159
0.0276305
0.0270289
0.0272492
0.0273215
0.027231
0.0270228
0.0269986
0.0271736
0.0273153
0.0273577
0.0273348
0.0272537
0.0271669
0.0272726
0.0273714
0.027408
0.0274148
0.0274141
0.0274061
0.0273791
0.0272803
0.0270196
0.026854
0.0270173
0.0272224
0.027354
0.0274304
0.027434
0.0273611
0.0273006
0.027285
0.0272773
0.0272947
0.0275352
0.0278667
0.0278831
0.0277755
0.0275647
0.0273592
0.0272749
0.0272746
0.0273707
0.0279372
0.0290779
0.0291566
0.028555
0.027992
0.0277663
0.0277226
0.0276907
0.0275786
0.027487
0.027419
0.0274168
0.0274018
0.0274225
0.027419
0.0274044
0.0273766
0.0273521
0.0273652
0.027398
0.0274202
0.0274302
0.0272674
0.0267977
0.0270944
0.0277908
0.0279922
0.0276663
0.0263714
0.0264464
0.0273406
0.0287387
0.0275728
0.0274787
0.0274435
0.0274326
0.0274286
0.0274266
0.0274256
0.0274256
0.0274264
0.0274309
0.0274449
0.0274606
0.0274884
0.0274801
0.0353225
0.0345349
0.0341661
0.0352405
0.0353452
0.0350057
0.0343591
0.0354965
0.036916
0.0366693
0.0353651
0.0388716
0.0512074
0.0286896
0.0196703
0.0235487
0.0362106
0.0396459
0.0333409
0.0327856
0.0355602
0.0374841
0.0380755
0.0382922
0.038437
0.0385227
0.0384635
0.038321
0.0381927
0.0380756
0.0378515
0.0376014
0.0376663
0.0379533
0.0381094
0.0381107
0.0380509
0.0380351
0.0381161
0.0382959
0.0383776
0.0379225
0.0372722
0.0371265
0.0375225
0.0379946
0.0382493
0.0383443
0.038385
0.038413
0.0385256
0.0384824
0.0384873
0.038576
0.0387076
0.038284
0.0365853
0.0349734
0.0362406
0.0372317
0.0377141
0.0379455
0.0380766
0.0381545
0.0381507
0.038207
0.0382889
0.0382849
0.038077
0.0369124
0.0358382
0.0364788
0.037215
0.0376451
0.0379857
0.0381956
0.0382933
0.0383456
0.0383881
0.0384577
0.0387006
0.0393493
0.0346227
0.0389967
0.0380315
0.0379103
0.0378523
0.0377881
0.0377913
0.0379451
0.0381229
0.0382619
0.0383162
0.0383164
0.0382921
0.0382841
0.0383442
0.0385763
0.038736
0.0383668
0.0379847
0.0378718
0.0379855
0.038186
0.0382999
0.0383277
0.0383315
0.0383167
0.0382483
0.0380344
0.0385059
0.0475036
0.0415261
0.0368054
0.0375892
0.0381691
0.0382312
0.0380952
0.0377129
0.0376636
0.0379606
0.0381832
0.0382021
0.0380057
0.0377844
0.0380506
0.0382736
0.0383339
0.0383421
0.0383411
0.0383303
0.0382951
0.0381472
0.0377485
0.0376522
0.0378639
0.0380818
0.0382058
0.0382846
0.0383634
0.038362
0.0383085
0.0382637
0.0382035
0.0381588
0.0382732
0.0384849
0.0385784
0.038608
0.0384853
0.0382805
0.038234
0.0383328
0.0385213
0.0391134
0.0402804
0.0403446
0.0398608
0.0390897
0.0387989
0.0386886
0.0385794
0.0384313
0.0383711
0.0383128
0.0383109
0.0382985
0.0383164
0.0383183
0.0383084
0.038287
0.0382847
0.0383093
0.038345
0.0383853
0.0383678
0.0380132
0.0376663
0.0380468
0.0384534
0.0385746
0.038382
0.0377342
0.0378363
0.0384721
0.039158
0.038669
0.0384363
0.0383707
0.0383554
0.0383516
0.0383505
0.0383513
0.0383527
0.0383553
0.0383618
0.0383773
0.0384152
0.0384138
0.0384219
0.0464965
0.0461288
0.0462641
0.0464585
0.0455982
0.0440301
0.0402466
0.0360251
0.0336628
0.0374236
0.0450778
0.052297
0.0587104
0.0395104
0.0394508
0.0473095
0.0494095
0.0481744
0.0444986
0.0414911
0.0439615
0.0480993
0.0495346
0.0498896
0.0501189
0.0500848
0.049729
0.0493319
0.0491408
0.0489981
0.0487759
0.0485105
0.0486095
0.0489229
0.0490602
0.049046
0.0489414
0.0488204
0.04885
0.0496077
0.0504403
0.0490804
0.0475062
0.0470804
0.0473117
0.0480034
0.0487188
0.0491665
0.049545
0.0496537
0.0492304
0.0485677
0.0483484
0.0487235
0.0490716
0.049204
0.0483406
0.0473543
0.0476413
0.0479648
0.0481802
0.0483232
0.0484138
0.0481235
0.0474216
0.04759
0.048107
0.0481336
0.0476239
0.0471973
0.0472
0.0476287
0.0478884
0.048079
0.0484373
0.0487985
0.0490427
0.0491681
0.049254
0.0493357
0.0494864
0.0497037
0.0489789
0.0493703
0.049035
0.0489753
0.0489164
0.0488408
0.0487108
0.0487002
0.048871
0.0490798
0.049192
0.0492283
0.0492367
0.0492488
0.0493348
0.0495445
0.0495905
0.0493032
0.0489383
0.0487338
0.0487302
0.0489978
0.0491689
0.0492242
0.0492324
0.0492121
0.04906
0.04839
0.0511132
0.0762023
0.0692691
0.049703
0.0470866
0.0485421
0.0490692
0.0489929
0.0484502
0.0478889
0.0481258
0.0484637
0.0486104
0.0482255
0.0479627
0.0486344
0.0491212
0.0492181
0.0492418
0.0492399
0.0492334
0.049188
0.0489675
0.0483715
0.0486502
0.0487054
0.0488755
0.0490013
0.049142
0.0493405
0.0494048
0.0493406
0.0492337
0.0491406
0.0490973
0.0491586
0.0492405
0.0492908
0.0493266
0.0493122
0.0492776
0.0492945
0.0493308
0.0494165
0.0498662
0.0510868
0.0511967
0.0522812
0.0501469
0.0496462
0.0494635
0.0493175
0.0492377
0.0492282
0.0492204
0.0492152
0.0492095
0.0492157
0.0492159
0.04921
0.0492008
0.0492045
0.0492465
0.049313
0.0493798
0.0492353
0.0487435
0.0486163
0.049002
0.0491836
0.0492153
0.0491875
0.0491032
0.0490701
0.0492187
0.0496321
0.0498254
0.0494817
0.0492792
0.0492577
0.0492559
0.0492566
0.0492571
0.0492575
0.049259
0.0492625
0.0492737
0.0493319
0.0493516
0.0493007
0.0580401
0.0588213
0.0589966
0.0585068
0.0575278
0.0545635
0.0470496
0.0388314
0.0358225
0.0375209
0.0411881
0.0497194
0.0675929
0.0602933
0.0591145
0.0596963
0.0595546
0.0585001
0.0548452
0.0483505
0.0494014
0.0579289
0.0622919
0.0620329
0.0616251
0.0610977
0.060569
0.0602184
0.0599638
0.0597299
0.0594672
0.0591191
0.0592971
0.0597321
0.0599214
0.0599208
0.0597571
0.0593242
0.0591242
0.0641557
0.0652493
0.0600636
0.056066
0.0568369
0.0570769
0.057458
0.0581647
0.0594407
0.0602238
0.0603908
0.0602513
0.0598357
0.0595741
0.0597633
0.0598746
0.0599397
0.0598022
0.0595508
0.0594497
0.0594705
0.0594548
0.0593813
0.0590598
0.0576344
0.0557006
0.0557911
0.0572086
0.0578024
0.0579736
0.0582193
0.0585849
0.0588912
0.0589512
0.0588699
0.0589422
0.0592947
0.0597197
0.0599518
0.0601119
0.0602078
0.0603278
0.0603831
0.0602484
0.0601489
0.0600368
0.0599899
0.0600094
0.0598708
0.0596136
0.0593941
0.0594779
0.0598015
0.0600351
0.060108
0.0601386
0.0601688
0.0602955
0.060545
0.0605902
0.0603436
0.0600717
0.0597387
0.0596176
0.0597358
0.0599821
0.06009
0.0601245
0.0600286
0.0591512
0.0594039
0.0752512
0.0849432
0.0813317
0.0568438
0.0567844
0.0593692
0.0599236
0.0599397
0.0595551
0.0590018
0.0588001
0.0588246
0.0585032
0.0578418
0.0576176
0.0588862
0.0598777
0.060115
0.0601088
0.0601085
0.0600944
0.0600689
0.0594875
0.0584822
0.0610831
0.0596739
0.0597315
0.0599251
0.0601034
0.060282
0.0603879
0.0603229
0.0601823
0.0600704
0.0600594
0.0601046
0.0601305
0.0601401
0.0601462
0.0601527
0.0601585
0.0601681
0.0601695
0.0601241
0.0603643
0.0621987
0.0627885
0.0762983
0.0618081
0.0600521
0.0600849
0.060079
0.0600858
0.0600953
0.0601037
0.060103
0.0601063
0.0601063
0.0601041
0.0600975
0.0600959
0.0601214
0.0601541
0.0601818
0.0601794
0.0600634
0.059691
0.0596058
0.0598298
0.059979
0.0600423
0.0600623
0.0600627
0.0600612
0.0600842
0.0602392
0.0607653
0.0605574
0.0601784
0.0601371
0.0601369
0.0601373
0.0601369
0.0601361
0.0601301
0.060122
0.0600682
0.0605045
0.0602824
0.0601255
0.0686963
0.0700126
0.07023
0.0698901
0.0691503
0.0676536
0.0660617
0.0641948
0.0631332
0.0603376
0.0548141
0.0587102
0.072433
0.0735752
0.0712164
0.07039
0.0696917
0.0687993
0.0657655
0.0580896
0.0565361
0.0640808
0.0710194
0.0712234
0.0710422
0.0709945
0.0709419
0.0708837
0.0708348
0.070868
0.0705791
0.06981
0.069741
0.0701746
0.0704671
0.0705184
0.0702399
0.0694233
0.0698166
0.081818
0.0771563
0.0687246
0.0613803
0.0647349
0.0665735
0.0658006
0.0655267
0.0683855
0.0705832
0.0709567
0.0709327
0.0708589
0.0708162
0.0707982
0.0707825
0.0707394
0.0706779
0.0706579
0.0706869
0.0707243
0.0706876
0.0705722
0.0701683
0.0687173
0.0666111
0.0672147
0.0688543
0.0693369
0.0690625
0.0691012
0.0694879
0.0699285
0.070013
0.0698884
0.0697513
0.0700062
0.0702146
0.0706754
0.0708585
0.0710264
0.0710561
0.0710453
0.0708627
0.0708571
0.0708951
0.0709726
0.0710431
0.0710513
0.0708805
0.0704706
0.0701468
0.0703683
0.0707671
0.0709892
0.0710174
0.0710604
0.071165
0.0714489
0.0713903
0.0712957
0.0711558
0.0710025
0.0708268
0.0708549
0.0709539
0.0710233
0.0709951
0.0707707
0.0689643
0.0680901
0.0859953
0.086637
0.0835577
0.0607218
0.0681136
0.0704917
0.0708985
0.0709716
0.0709093
0.0707008
0.0703842
0.0699424
0.0692889
0.0680736
0.0663819
0.0676358
0.0701702
0.0709642
0.0709164
0.0708597
0.07088
0.0710866
0.0696744
0.0699837
0.0780318
0.0713642
0.0708787
0.0709664
0.071068
0.0712191
0.0713728
0.0713119
0.0710819
0.0709674
0.0709706
0.0709868
0.070995
0.070996
0.0709943
0.0709893
0.0709808
0.0709534
0.0708528
0.0704317
0.0704137
0.0774445
0.0788135
0.106051
0.0754729
0.0700951
0.0707048
0.0708755
0.0709261
0.0709591
0.0710214
0.0710528
0.0710505
0.0710135
0.0709878
0.0709458
0.0709387
0.0709467
0.0709591
0.0709696
0.0709655
0.0709213
0.070755
0.0705757
0.070623
0.0707655
0.0708598
0.0709082
0.0709264
0.070934
0.070939
0.0710083
0.0714532
0.0715323
0.0710882
0.070977
0.0709928
0.0709931
0.0709919
0.070979
0.0709367
0.0708713
0.0706169
0.0730541
0.0716851
0.0707369
0.0752697
0.0796261
0.0799788
0.0796762
0.0789526
0.0791042
0.0794931
0.0801237
0.0804419
0.0794252
0.0753484
0.0730504
0.0789924
0.0816519
0.0812803
0.0810059
0.0805074
0.0797051
0.076436
0.0706177
0.0706694
0.0781174
0.0809121
0.0813098
0.0814483
0.0815873
0.0816801
0.0817573
0.0818555
0.0820527
0.082147
0.0814944
0.0810763
0.0811218
0.0811835
0.0811516
0.0808963
0.0796009
0.0779953
0.092319
0.0759754
0.0680302
0.0690258
0.0768161
0.079029
0.0770842
0.0724399
0.0748487
0.0798064
0.0812767
0.0815522
0.0816098
0.0816381
0.0816421
0.0816297
0.0815946
0.0815691
0.0815632
0.0815938
0.0816228
0.08159
0.0813642
0.0807497
0.0799626
0.0795331
0.0800549
0.0804991
0.0804131
0.0800743
0.0798333
0.0800959
0.0806071
0.0809362
0.0809539
0.0811129
0.0809199
0.0808075
0.0800445
0.0806282
0.0807999
0.0810363
0.0810284
0.0812125
0.0815535
0.0817663
0.0818733
0.0820051
0.0820792
0.0820857
0.0818217
0.0813875
0.0811346
0.0814065
0.0816571
0.0817916
0.0817199
0.0816376
0.0818102
0.0818931
0.0820065
0.0820339
0.0820547
0.0820744
0.0820199
0.0819183
0.0818616
0.0818177
0.0817151
0.0805472
0.0704569
0.0940778
0.0894962
0.0763452
0.0697992
0.0818173
0.081683
0.0818034
0.0818581
0.0818752
0.0818461
0.0817731
0.081588
0.0811536
0.079931
0.0775405
0.0762022
0.0784917
0.0811774
0.081681
0.0816875
0.0818129
0.0822171
0.0792506
0.074006
0.0854141
0.0826079
0.0820636
0.0820629
0.0820501
0.0821597
0.0824399
0.0823148
0.0819483
0.0818322
0.0818228
0.0818286
0.0818346
0.0818435
0.0818552
0.0818432
0.081793
0.0816728
0.0814334
0.0807443
0.0790599
0.100026
0.0862455
0.112924
0.0833616
0.0801704
0.0814134
0.0816868
0.0817464
0.0817846
0.0818142
0.0818362
0.0818202
0.0818034
0.0817731
0.0817399
0.0817387
0.0817594
0.0817921
0.0818063
0.0818015
0.0817601
0.0816326
0.0814446
0.0814112
0.0815401
0.0816643
0.0817324
0.0817602
0.0817648
0.0817549
0.081758
0.0819353
0.0824027
0.0821929
0.081641
0.0818053
0.0818354
0.0818263
0.0817978
0.0816708
0.0815059
0.0810257
0.0841367
0.0834709
0.0811895
0.0823353
0.0891374
0.0904265
0.0906462
0.0899825
0.0896664
0.0890408
0.0904237
0.0903911
0.0894717
0.0867434
0.0827053
0.0846471
0.0887709
0.0914553
0.0918613
0.0920109
0.0902182
0.0877265
0.0814058
0.0840398
0.0895323
0.0917307
0.0922675
0.0922168
0.0921265
0.092212
0.0923564
0.0926289
0.0931307
0.0932328
0.0925494
0.0922391
0.0922629
0.0922749
0.0921902
0.0918041
0.0904449
0.0886509
0.0994307
0.0763339
0.070927
0.0845236
0.0919644
0.0925545
0.0906054
0.0823307
0.0800613
0.0837651
0.0887432
0.0911011
0.0919481
0.0922432
0.0923659
0.0923968
0.0924015
0.0924017
0.0924265
0.0925457
0.0925225
0.0922131
0.091334
0.0907405
0.0906064
0.0909716
0.0914331
0.0916512
0.0915718
0.091235
0.0908779
0.0911238
0.0913749
0.0915994
0.0917835
0.0917435
0.0914906
0.0907718
0.0905431
0.0908692
0.0911798
0.0911369
0.0908722
0.0907552
0.0918857
0.0922635
0.0926723
0.0928317
0.0930117
0.0930917
0.0930298
0.0925142
0.0918431
0.0917931
0.0921919
0.0924459
0.0924961
0.0925021
0.0925416
0.092563
0.0926521
0.0928056
0.0929291
0.0929715
0.0928405
0.0926268
0.0924982
0.0924796
0.0924904
0.0922973
0.0858423
0.104068
0.0795483
0.0783224
0.0894294
0.0943993
0.0927924
0.0926365
0.0926663
0.0926823
0.0926819
0.0926534
0.0926145
0.0925701
0.0923698
0.0906266
0.086671
0.0871357
0.0906333
0.0921971
0.0924869
0.0925881
0.0928847
0.090155
0.084703
0.0927885
0.0928447
0.0926871
0.0927067
0.0926872
0.0932772
0.0944461
0.094171
0.092857
0.0926702
0.0926286
0.0926305
0.0926883
0.0929091
0.0932541
0.093166
0.0927318
0.092356
0.0920796
0.0915484
0.089655
0.113439
0.094282
0.113124
0.0978182
0.0901112
0.0921245
0.0924697
0.0925533
0.0925744
0.0925797
0.0925935
0.0926025
0.0926084
0.0925955
0.092589
0.0925797
0.0926141
0.0926286
0.0926352
0.0926162
0.0925215
0.0923221
0.092102
0.0921443
0.0923356
0.0924808
0.0925509
0.0925817
0.0925893
0.0925816
0.0925694
0.0926314
0.0930901
0.0933901
0.0921124
0.0925948
0.0926872
0.0927165
0.0926837
0.0925158
0.0923738
0.0924638
0.0941751
0.0945263
0.0916009
0.0934077
0.100929
0.102178
0.102048
0.101229
0.0994822
0.098344
0.0993381
0.0998152
0.0995578
0.0976209
0.0932391
0.0885881
0.0918493
0.09849
0.10388
0.106931
0.10697
0.101197
0.0926953
0.0913543
0.0958567
0.101975
0.104586
0.101954
0.101421
0.102262
0.103996
0.104522
0.104482
0.103607
0.102925
0.103018
0.103235
0.103291
0.10321
0.102899
0.101782
0.100869
0.111608
0.0957662
0.0857974
0.098849
0.102557
0.103438
0.101958
0.0916024
0.0847403
0.0881806
0.0943565
0.0982928
0.100677
0.102145
0.102799
0.102971
0.102989
0.102921
0.102992
0.103054
0.103082
0.102795
0.102087
0.101502
0.101371
0.101777
0.102261
0.102533
0.102555
0.102393
0.102249
0.102056
0.102024
0.101818
0.101502
0.101822
0.102226
0.102282
0.102247
0.102527
0.1031
0.103146
0.10196
0.1011
0.099408
0.100007
0.100928
0.103149
0.103609
0.103741
0.10377
0.10347
0.102815
0.102493
0.102746
0.103197
0.103448
0.103578
0.103654
0.103491
0.103282
0.103133
0.103363
0.103522
0.103506
0.103383
0.103286
0.10324
0.103282
0.103593
0.105087
0.114329
0.089253
0.0806836
0.0986943
0.104412
0.10348
0.103347
0.103453
0.103406
0.103312
0.103289
0.103316
0.103316
0.103213
0.102554
0.099112
0.0966768
0.100046
0.102601
0.103254
0.103411
0.103278
0.101701
0.100378
0.102596
0.10292
0.102966
0.102813
0.102612
0.104003
0.108213
0.109224
0.104256
0.103559
0.103448
0.103419
0.103467
0.103723
0.104267
0.104635
0.104384
0.103119
0.102859
0.102533
0.104061
0.120181
0.100201
0.111422
0.0990534
0.101647
0.103079
0.103308
0.10336
0.10336
0.103355
0.103369
0.103387
0.103393
0.103402
0.103415
0.103485
0.103537
0.103567
0.10353
0.103315
0.103019
0.10286
0.102887
0.103046
0.103203
0.103302
0.103361
0.103394
0.10341
0.103421
0.103425
0.103437
0.103654
0.104002
0.102995
0.103373
0.103447
0.103466
0.103476
0.103377
0.103282
0.103654
0.105739
0.104781
0.102596
0.107056
0.111432
0.112588
0.112273
0.111513
0.109115
0.108568
0.110174
0.112317
0.112558
0.112039
0.107984
0.0966846
0.0933418
0.105772
0.120814
0.129228
0.125364
0.11699
0.107385
0.101776
0.101886
0.102475
0.109697
0.108934
0.109085
0.118709
0.124634
0.122584
0.117319
0.113098
0.112618
0.113416
0.113912
0.114068
0.114137
0.11405
0.113333
0.113109
0.11977
0.114836
0.106615
0.110483
0.112087
0.113069
0.112051
0.102866
0.0945165
0.0980727
0.1035
0.106933
0.109075
0.110661
0.111298
0.111469
0.111167
0.111185
0.112033
0.113022
0.113619
0.113547
0.113267
0.112634
0.112256
0.112323
0.112701
0.112762
0.112588
0.112306
0.112436
0.112783
0.112924
0.11273
0.112502
0.112703
0.113092
0.113273
0.113093
0.11337
0.114082
0.114259
0.113974
0.113492
0.11253
0.110647
0.111131
0.112644
0.113508
0.114062
0.114396
0.114182
0.113666
0.113151
0.113364
0.1138
0.114195
0.114399
0.11452
0.114451
0.113801
0.113601
0.113899
0.114126
0.114193
0.114217
0.114215
0.114255
0.114395
0.115076
0.118143
0.12215
0.108036
0.0922293
0.111052
0.114568
0.11385
0.113855
0.114029
0.113973
0.113859
0.113843
0.113916
0.113952
0.113831
0.113194
0.110673
0.107276
0.109737
0.112803
0.113775
0.114023
0.113722
0.112901
0.111937
0.11257
0.112936
0.113205
0.113083
0.112671
0.113435
0.120892
0.12315
0.114509
0.114085
0.114182
0.1142
0.114219
0.114271
0.114492
0.115494
0.117753
0.115257
0.113964
0.113571
0.129535
0.123794
0.108054
0.110469
0.103735
0.114511
0.114279
0.114183
0.114118
0.114009
0.113966
0.113992
0.11407
0.114111
0.114157
0.114211
0.114296
0.114369
0.114401
0.114352
0.114006
0.113699
0.113734
0.113886
0.113971
0.114028
0.114087
0.114146
0.114177
0.114193
0.1142
0.11421
0.114246
0.114329
0.114351
0.114138
0.114188
0.114199
0.114202
0.114212
0.114202
0.114178
0.114728
0.118434
0.115377
0.113337
0.119773
0.12194
0.121748
0.1207
0.119381
0.117372
0.117624
0.12263
0.124787
0.125403
0.12469
0.120869
0.108549
0.0969034
0.10326
0.117628
0.137389
0.134062
0.126534
0.12227
0.118965
0.11236
0.114941
0.112033
0.109907
0.121886
0.132673
0.138565
0.133568
0.124872
0.120687
0.12108
0.123129
0.124452
0.12487
0.125043
0.125192
0.125189
0.125563
0.128585
0.126633
0.120883
0.120364
0.121946
0.123115
0.123173
0.119446
0.113437
0.114772
0.117432
0.119281
0.120606
0.121157
0.119629
0.117285
0.117137
0.118653
0.120733
0.122437
0.123361
0.123808
0.123475
0.122739
0.121752
0.121556
0.121759
0.121953
0.121978
0.122339
0.122788
0.123234
0.123615
0.12362
0.123413
0.123446
0.123868
0.124036
0.123869
0.123717
0.124307
0.124759
0.124839
0.12481
0.124726
0.124039
0.123783
0.124415
0.124774
0.124829
0.124804
0.124835
0.124538
0.124286
0.123924
0.124064
0.124482
0.12509
0.124989
0.124459
0.124186
0.124384
0.124684
0.124897
0.125019
0.125172
0.125517
0.125976
0.126094
0.126088
0.127641
0.128426
0.122017
0.115164
0.123062
0.12494
0.124224
0.124222
0.124527
0.124543
0.124467
0.12441
0.124407
0.124357
0.124058
0.123287
0.121612
0.118983
0.119799
0.122209
0.123969
0.124413
0.124396
0.123693
0.122651
0.12177
0.12194
0.123866
0.124907
0.124637
0.12499
0.132427
0.13342
0.125071
0.125118
0.125064
0.12501
0.125009
0.125074
0.125364
0.126613
0.131475
0.129489
0.127205
0.12734
0.132641
0.113561
0.108286
0.120205
0.124218
0.126221
0.125657
0.125041
0.123948
0.123666
0.124175
0.124598
0.124762
0.124834
0.124853
0.124842
0.124826
0.124849
0.124918
0.124921
0.124745
0.124602
0.124699
0.124772
0.124784
0.124775
0.124839
0.124902
0.124931
0.124943
0.124956
0.124998
0.125049
0.12507
0.12503
0.124959
0.124954
0.124955
0.124957
0.124967
0.124973
0.124944
0.125251
0.128124
0.124929
0.124432
0.133242
0.132517
0.129641
0.125609
0.11858
0.119138
0.129379
0.139394
0.141655
0.140163
0.136855
0.130162
0.118512
0.106914
0.11096
0.126508
0.140987
0.1377
0.133773
0.132982
0.133007
0.131751
0.138358
0.127816
0.111479
0.11615
0.125833
0.140494
0.137909
0.131672
0.128555
0.128707
0.131749
0.134622
0.135668
0.135879
0.136002
0.13627
0.137023
0.13832
0.136278
0.130891
0.129347
0.131227
0.132595
0.132828
0.132101
0.130734
0.131171
0.132363
0.133299
0.134028
0.133963
0.129762
0.124429
0.126129
0.129476
0.131425
0.132639
0.133423
0.133578
0.132781
0.130546
0.128795
0.129028
0.130966
0.132693
0.133425
0.133606
0.133519
0.133523
0.133533
0.133296
0.133629
0.134209
0.134663
0.134889
0.13484
0.134893
0.135278
0.135495
0.135554
0.135566
0.135528
0.135384
0.13535
0.135524
0.135571
0.135565
0.135575
0.135562
0.13553
0.135309
0.134975
0.134613
0.134628
0.134945
0.134531
0.134518
0.134782
0.135106
0.135505
0.135677
0.135899
0.136199
0.136565
0.136725
0.136674
0.136542
0.136719
0.136914
0.135349
0.133747
0.134911
0.135415
0.134782
0.134874
0.135142
0.135225
0.135148
0.13491
0.13464
0.134478
0.134345
0.134149
0.13349
0.131722
0.130442
0.131422
0.13329
0.134197
0.134452
0.133966
0.132534
0.130639
0.130253
0.134245
0.137524
0.138144
0.137968
0.141377
0.141228
0.137676
0.137254
0.136218
0.135907
0.135913
0.136328
0.13751
0.139469
0.142652
0.140298
0.137477
0.138
0.131872
0.116761
0.11332
0.131928
0.136621
0.136426
0.136129
0.135554
0.134869
0.135127
0.135484
0.135573
0.135594
0.135596
0.135522
0.135415
0.135328
0.135327
0.135377
0.135444
0.135487
0.135532
0.135618
0.135656
0.135615
0.135538
0.135592
0.135651
0.135664
0.135688
0.135768
0.13592
0.13598
0.135893
0.135778
0.135713
0.135705
0.135688
0.135694
0.135692
0.135715
0.135788
0.136018
0.136575
0.135972
0.135749
0.144012
0.14211
0.136493
0.123416
0.116384
0.120218
0.138457
0.152237
0.153536
0.150552
0.146115
0.140438
0.133394
0.127962
0.135613
0.146081
0.146919
0.144013
0.140729
0.140082
0.139327
0.139507
0.141057
0.128485
0.115039
0.119567
0.137427
0.147228
0.143965
0.139742
0.13629
0.135116
0.138298
0.144362
0.146672
0.146631
0.146649
0.146791
0.146921
0.147059
0.145321
0.141292
0.139634
0.140815
0.142086
0.142877
0.143232
0.143523
0.14429
0.145295
0.146036
0.14614
0.144585
0.138836
0.133726
0.135766
0.139662
0.141914
0.142816
0.143335
0.143269
0.142486
0.140626
0.139098
0.140012
0.142592
0.144329
0.144894
0.14504
0.144885
0.144665
0.143016
0.140786
0.143726
0.145579
0.145551
0.145768
0.145819
0.145973
0.146138
0.146245
0.146278
0.146261
0.146186
0.146121
0.146106
0.146228
0.146329
0.146349
0.146347
0.146302
0.146297
0.146226
0.146112
0.145862
0.146216
0.147838
0.146221
0.145188
0.145425
0.146191
0.146744
0.147053
0.14692
0.146623
0.146649
0.146738
0.146683
0.14668
0.146761
0.146773
0.146441
0.146133
0.146182
0.146139
0.1457
0.145613
0.145834
0.145944
0.145919
0.145671
0.145251
0.144814
0.144678
0.144842
0.14461
0.143356
0.141118
0.14118
0.143099
0.144612
0.145055
0.145
0.144023
0.14222
0.141139
0.143255
0.146704
0.148611
0.148444
0.148804
0.149077
0.150037
0.150042
0.148149
0.147477
0.147541
0.148528
0.150579
0.151791
0.151633
0.148796
0.147124
0.147207
0.147558
0.14253
0.140162
0.1463
0.146513
0.146454
0.146416
0.146415
0.146425
0.146673
0.146579
0.146395
0.146348
0.146251
0.146052
0.145766
0.145656
0.145801
0.14598
0.146116
0.146205
0.146276
0.146345
0.146378
0.146338
0.14626
0.146344
0.146443
0.146394
0.14646
0.14657
0.146699
0.146711
0.146598
0.146478
0.146446
0.146425
0.146442
0.146413
0.146413
0.14644
0.146538
0.146775
0.14702
0.146753
0.146613
0.1545
0.151914
0.1441
0.130641
0.122552
0.127542
0.150597
0.162078
0.159248
0.156508
0.153348
0.148693
0.144859
0.145653
0.152079
0.156349
0.156182
0.152872
0.144313
0.1373
0.137154
0.144884
0.139965
0.126484
0.1207
0.133403
0.153054
0.154343
0.151111
0.147184
0.141219
0.135396
0.141314
0.151618
0.1555
0.155768
0.155187
0.154997
0.155317
0.155248
0.154253
0.152284
0.151503
0.152323
0.153371
0.153997
0.154066
0.15397
0.154235
0.155151
0.15601
0.15636
0.155194
0.150651
0.146561
0.147483
0.149628
0.151018
0.151069
0.151119
0.151626
0.152221
0.152043
0.151684
0.152584
0.154437
0.155528
0.15612
0.156144
0.156268
0.156628
0.153095
0.147004
0.155567
0.15608
0.155884
0.15598
0.156466
0.156632
0.156811
0.156889
0.156892
0.156766
0.156621
0.157126
0.156474
0.156565
0.156649
0.156675
0.15664
0.156785
0.156842
0.156898
0.156853
0.156875
0.157881
0.159991
0.157621
0.156396
0.156723
0.158225
0.159232
0.158794
0.157752
0.156425
0.155745
0.155767
0.155886
0.156066
0.156397
0.156771
0.156993
0.156995
0.156994
0.156933
0.15673
0.156519
0.156415
0.156627
0.156631
0.15656
0.156191
0.155524
0.154974
0.154248
0.153605
0.152536
0.152121
0.15316
0.154881
0.155853
0.156242
0.156404
0.156334
0.155875
0.154907
0.15441
0.155013
0.156409
0.157035
0.156992
0.157348
0.161941
0.162712
0.160712
0.161674
0.162204
0.162942
0.164789
0.162648
0.159847
0.157937
0.157284
0.15723
0.157289
0.156879
0.156397
0.157022
0.157131
0.157094
0.157088
0.157073
0.157346
0.157997
0.157895
0.157139
0.156832
0.156612
0.156339
0.156009
0.155932
0.156202
0.156551
0.156746
0.156844
0.1569
0.156941
0.156971
0.156993
0.15699
0.157062
0.157128
0.157067
0.157307
0.157439
0.157406
0.157322
0.157241
0.157194
0.157169
0.157128
0.157099
0.157096
0.157108
0.15714
0.157273
0.157535
0.157597
0.157496
0.157295
0.161104
0.158862
0.155396
0.152142
0.149358
0.160978
0.172002
0.169619
0.166662
0.163821
0.159266
0.154005
0.152426
0.157045
0.163197
0.165988
0.164643
0.158125
0.148103
0.142032
0.144405
0.164637
0.16731
0.149076
0.149387
0.162922
0.165636
0.163717
0.160529
0.155357
0.143897
0.136046
0.138799
0.146936
0.159677
0.164417
0.163643
0.163931
0.164052
0.163615
0.163289
0.162935
0.163139
0.163967
0.164572
0.164614
0.163709
0.162623
0.163067
0.164664
0.165987
0.166527
0.166447
0.165357
0.163106
0.16194
0.161986
0.161203
0.159686
0.159634
0.160891
0.16245
0.163209
0.163432
0.164089
0.166009
0.168029
0.168394