/*--------------------------------*- C++ -*----------------------------------*\
  =========                 |
  \\      /  F ield         | OpenFOAM: The Open Source CFD Toolbox
   \\    /   O peration     | Website:  https://openfoam.org
    \\  /    A nd           | Version:  8
     \\/     M anipulation  |
\*---------------------------------------------------------------------------*/
FoamFile
{
    version     2.0;
    format      ascii;
    class       volScalarField;
    location    "800";
    object      c_0;
}
// * * * * * * * * * * * * * * * * * * * * * * * * * * * * * * * * * * * * * //

dimensions      [1 -3 0 0 0 0 0];

internalField   nonuniform List<scalar> 
20000
(
0.00490346
0.00491712
0.00490505
0.00504211
0.00526664
0.00543366
0.00547871
0.00548808
0.00547605
0.00545547
0.00542457
0.00541819
0.00558398
0.004767
0.00350907
0.00561646
0.0135507
0.0109668
0.00560233
0.00415654
0.00502712
0.00538189
0.0054469
0.00546266
0.00547501
0.00544188
0.00537809
0.00522162
0.00511721
0.00513743
0.00518161
0.00516838
0.00517252
0.00524364
0.0053661
0.00547851
0.00552947
0.00551464
0.00544225
0.00534393
0.00529207
0.00534385
0.00548736
0.00564199
0.00574294
0.0057804
0.00572976
0.00560964
0.00546286
0.00531186
0.00521777
0.00518724
0.00526816
0.00546308
0.00572248
0.00586087
0.00466802
0.0043519
0.00517616
0.00543716
0.0054981
0.00553394
0.00557438
0.00559191
0.00550273
0.00537658
0.00497436
0.00467925
0.00490901
0.00503119
0.00527205
0.00551097
0.00559625
0.00559396
0.00556031
0.00552595
0.00550562
0.00549286
0.00546732
0.00537814
0.00607303
0.0122946
0.00894845
0.0122259
0.00496205
0.00469811
0.00505085
0.00520775
0.00532928
0.00539406
0.00538614
0.00532177
0.00528457
0.00539387
0.00547046
0.00549701
0.00552009
0.00557587
0.00568377
0.00553793
0.00540011
0.00544718
0.00549625
0.00553992
0.00559287
0.0056276
0.00559843
0.00552466
0.00541381
0.00530651
0.00530569
0.0054389
0.00549939
0.00552789
0.00556008
0.00557656
0.00553295
0.00543865
0.00540303
0.00542745
0.00545048
0.0054584
0.00545704
0.00545268
0.00545316
0.00546706
0.00548326
0.00549114
0.0054938
0.00549402
0.00549351
0.00549188
0.00548988
0.0054829
0.00546119
0.00539106
0.00532535
0.00540555
0.00550405
0.00553963
0.00552915
0.00550814
0.00549815
0.00550158
0.00552488
0.00557999
0.00561041
0.00556574
0.00553529
0.00551058
0.00549563
0.00547758
0.00543025
0.00534799
0.00542669
0.00595654
0.00625069
0.00620558
0.00588398
0.00560325
0.00548511
0.00545206
0.00543139
0.00546565
0.00547763
0.00549546
0.00549632
0.00550472
0.00550618
0.00551317
0.00550344
0.00548859
0.00548277
0.00548385
0.00548917
0.00549724
0.00548686
0.00532387
0.00544557
0.00568141
0.00562218
0.00556313
0.0053853
0.00504289
0.0046865
0.00874396
0.00503152
0.00543466
0.00550127
0.00550672
0.00551131
0.00551197
0.00550607
0.00549977
0.00549457
0.00548824
0.00548764
0.00549544
0.00551261
0.00551212
0.0157507
0.0153844
0.0150267
0.0151318
0.0156041
0.0161666
0.0163827
0.0164208
0.0163635
0.0163124
0.0162233
0.0161949
0.0182299
0.0145978
0.0100375
0.0166544
0.0300374
0.0241379
0.012949
0.0129859
0.0153196
0.0161175
0.016354
0.0164359
0.0165018
0.0164927
0.016422
0.0162109
0.0160006
0.0159464
0.0157971
0.0156554
0.0157175
0.0159177
0.0161855
0.0163807
0.0164566
0.0164354
0.0163367
0.0161736
0.0159999
0.0159542
0.0162038
0.0165997
0.016831
0.0169212
0.016848
0.0167032
0.0165167
0.0163436
0.0161708
0.0161134
0.0163088
0.0166939
0.0169933
0.0167482
0.0141696
0.0135236
0.0155361
0.0163029
0.016476
0.0165488
0.0166227
0.016669
0.0166565
0.0165264
0.0158898
0.0154355
0.0154167
0.0149518
0.0149509
0.0160424
0.0164854
0.0165537
0.016531
0.0165019
0.0164863
0.0164776
0.016468
0.0163704
0.0158052
0.0184479
0.00814582
0.0185175
0.0141141
0.0152189
0.0156159
0.0158175
0.016081
0.0162824
0.0163275
0.0162269
0.0161673
0.0162305
0.0163262
0.0164049
0.0164925
0.0166773
0.0169515
0.0165892
0.0162143
0.016304
0.0164288
0.0165492
0.0166119
0.0166284
0.0165814
0.0164865
0.016352
0.0161594
0.0161798
0.0165343
0.0165086
0.016479
0.0165298
0.0165324
0.0164173
0.0162328
0.0162054
0.0163076
0.0163784
0.0163972
0.0163856
0.0163526
0.0163397
0.0163837
0.0164364
0.0164585
0.016465
0.0164654
0.0164609
0.0164489
0.0164131
0.016321
0.0162203
0.0161947
0.0162078
0.0163469
0.0164776
0.0165188
0.0164818
0.0164317
0.0164111
0.0164181
0.0164686
0.0166859
0.0168721
0.0167826
0.0166524
0.0165402
0.016465
0.0163935
0.0162861
0.0161791
0.0164407
0.017498
0.0178563
0.0175062
0.0169469
0.0166158
0.0166042
0.0164906
0.0164804
0.01639
0.0164491
0.0164405
0.0164756
0.0164768
0.0164969
0.0164904
0.016467
0.016439
0.016428
0.0164359
0.0164543
0.0164741
0.016415
0.0160306
0.0162908
0.0168999
0.0169239
0.0167306
0.0158458
0.0154356
0.0145849
0.0192019
0.0156312
0.0164285
0.0164835
0.0164862
0.0164897
0.0164897
0.0164819
0.0164751
0.0164698
0.0164644
0.0164689
0.0164901
0.0164971
0.0165151
0.0262451
0.0254355
0.0251075
0.0248668
0.0257381
0.0259541
0.0264371
0.0267144
0.0270005
0.0270059
0.0267157
0.0266295
0.0371522
0.0296498
0.0166823
0.024106
0.0353281
0.03165
0.0226705
0.0229438
0.0255401
0.0268286
0.0272121
0.0273532
0.0274399
0.0274801
0.0274611
0.0273465
0.0271996
0.0270088
0.0267497
0.0265283
0.0265945
0.0268722
0.0271178
0.0272161
0.0272238
0.0272258
0.0272372
0.0272049
0.0270469
0.0267614
0.0267857
0.0271319
0.0274594
0.0276315
0.0276167
0.0275436
0.0274587
0.0274105
0.0273403
0.0273997
0.0276482
0.0279891
0.0280945
0.0275242
0.0247609
0.0237031
0.0257998
0.0270173
0.0273214
0.0274306
0.0274845
0.0275009
0.0274686
0.0274376
0.0273808
0.0272753
0.026937
0.0256168
0.024865
0.0260246
0.0267771
0.0271792
0.0273397
0.0273987
0.0274222
0.0274413
0.0274648
0.0275106
0.0277581
0.0290607
0.0166102
0.0288763
0.0267326
0.0266795
0.0266629
0.026681
0.0268776
0.0271243
0.0272939
0.0273331
0.0272999
0.0272631
0.0272563
0.0272756
0.0273806
0.0276583
0.027959
0.027516
0.0270737
0.027066
0.0272244
0.0274028
0.0274707
0.0274447
0.0274183
0.0273964
0.0273389
0.0271937
0.0273026
0.0285168
0.0275698
0.0270529
0.0272683
0.0273334
0.0272344
0.0270192
0.0269899
0.027167
0.0273107
0.0273537
0.0273299
0.0272474
0.0271613
0.0272679
0.0273693
0.0274078
0.0274156
0.0274155
0.027408
0.0273817
0.0272874
0.0270423
0.026892
0.027052
0.0272402
0.0273539
0.0274211
0.0274283
0.0273689
0.0273168
0.0273029
0.027296
0.027312
0.0275289
0.0278233
0.0278327
0.0277435
0.0275612
0.0273802
0.0273045
0.0273062
0.0274014
0.0279394
0.0290178
0.0290767
0.0285009
0.0279695
0.0277561
0.0277149
0.0276853
0.0275748
0.0274859
0.0274162
0.0274151
0.0274004
0.0274226
0.0274191
0.0274044
0.027376
0.0273493
0.027361
0.027394
0.0274165
0.0274277
0.0272741
0.0268312
0.0271123
0.0277646
0.0279512
0.0276355
0.0264228
0.0264936
0.0273621
0.028635
0.0275623
0.0274715
0.0274397
0.0274304
0.0274272
0.0274256
0.0274248
0.0274247
0.0274249
0.0274282
0.0274401
0.0274538
0.0274802
0.0274712
0.0353279
0.0345523
0.0341925
0.035244
0.0353403
0.035003
0.0343938
0.0355298
0.036933
0.0366993
0.0354275
0.0386572
0.0503525
0.0293596
0.0199183
0.0240755
0.0369071
0.039541
0.033494
0.0328878
0.0355776
0.0374725
0.0380672
0.0382886
0.0384356
0.0385218
0.0384612
0.0383159
0.0381843
0.0380629
0.0378301
0.0375719
0.0376378
0.0379343
0.038096
0.0380961
0.0380315
0.0380125
0.0380894
0.0382573
0.0383185
0.0378729
0.0372723
0.0371511
0.0375513
0.0380146
0.0382602
0.0383471
0.0383826
0.0384054
0.0385072
0.0384691
0.0384902
0.0385949
0.0387029
0.0382626
0.0365335
0.034895
0.0361308
0.0371933
0.0377025
0.0379424
0.0380762
0.0381578
0.0381596
0.038216
0.0382943
0.0382877
0.0380802
0.0369353
0.0358517
0.0364296
0.0371647
0.0376134
0.0379697
0.0381889
0.0382912
0.038346
0.03839
0.0384579
0.0386814
0.0393161
0.0351074
0.0389072
0.0379809
0.0378672
0.0378054
0.0377339
0.0377349
0.0378976
0.0380906
0.0382449
0.0383073
0.0383086
0.0382813
0.0382701
0.0383271
0.0385571
0.0387136
0.0383502
0.0379667
0.0378511
0.0379718
0.0381815
0.0382997
0.0383277
0.0383315
0.0383171
0.0382508
0.0380435
0.0384476
0.0466508
0.0410232
0.0368921
0.0376524
0.0381921
0.0382425
0.0380848
0.0376841
0.0376331
0.0379363
0.0381654
0.0381827
0.0379818
0.0377615
0.0380312
0.0382633
0.0383298
0.0383409
0.0383416
0.0383322
0.0382999
0.0381627
0.0377918
0.0377064
0.0379042
0.0380985
0.0382081
0.0382793
0.0383587
0.0383645
0.0383183
0.0382787
0.038226
0.0381878
0.0382891
0.038473
0.0385528
0.0385849
0.038485
0.0383004
0.0382556
0.0383446
0.0385233
0.0390875
0.0401948
0.0402478
0.0397831
0.0390614
0.0387908
0.0386874
0.0385814
0.0384331
0.0383722
0.0383122
0.0383102
0.0382979
0.0383164
0.0383181
0.0383075
0.0382844
0.0382801
0.0383027
0.0383377
0.0383786
0.0383627
0.0380238
0.0376982
0.03806
0.0384429
0.0385543
0.0383681
0.0377606
0.037853
0.038453
0.0390832
0.0386391
0.0384247
0.038366
0.0383535
0.0383509
0.0383504
0.0383511
0.0383523
0.0383542
0.0383592
0.0383722
0.0384066
0.0384044
0.0384118
0.0465011
0.0461382
0.0462728
0.0464531
0.0455788
0.0439845
0.0402163
0.0360126
0.0337122
0.0373239
0.0448507
0.0520653
0.0588851
0.0402352
0.0402175
0.0475007
0.0493295
0.0480926
0.04451
0.0415778
0.043979
0.0480512
0.049493
0.0498704
0.0501062
0.0500732
0.0497179
0.049319
0.0491278
0.0489802
0.0487528
0.0484784
0.048584
0.0489077
0.0490504
0.0490348
0.048925
0.0487954
0.0488177
0.0495104
0.0502843
0.0489913
0.0475576
0.0471364
0.0473371
0.0480247
0.0487305
0.0491769
0.0495455
0.0496353
0.0491924
0.0485363
0.0483568
0.0487342
0.0490709
0.0491712
0.0483055
0.0472637
0.0475358
0.0478913
0.048123
0.0482668
0.0483583
0.048105
0.047442
0.0476253
0.0481356
0.0481704
0.0476655
0.0472243
0.0471999
0.0475872
0.0478324
0.0480253
0.0483997
0.0487778
0.0490334
0.0491652
0.0492546
0.049336
0.0494796
0.0496856
0.0490274
0.0493296
0.0489987
0.0489388
0.0488747
0.048793
0.0486541
0.0486445
0.0488282
0.0490549
0.0491795
0.0492206
0.0492296
0.0492394
0.049321
0.0495245
0.0495669
0.0492853
0.0489165
0.0487121
0.0487081
0.0489894
0.0491661
0.0492236
0.0492323
0.0492133
0.0490692
0.0484298
0.0509429
0.0755567
0.0681088
0.0493976
0.0472463
0.0485803
0.049082
0.0489846
0.0484224
0.0478248
0.048052
0.0483993
0.0485498
0.0481753
0.0479262
0.0485979
0.0490987
0.0492078
0.049237
0.0492379
0.0492336
0.0491925
0.0489895
0.0484344
0.0487085
0.0487664
0.0489138
0.0490207
0.0491446
0.0493286
0.0493892
0.0493358
0.0492433
0.0491632
0.0491232
0.0491733
0.049242
0.0492852
0.0493184
0.0493075
0.0492767
0.0492921
0.0493271
0.049413
0.0498497
0.0510109
0.0510993
0.0519909
0.0501125
0.0496463
0.0494673
0.0493214
0.0492399
0.0492293
0.0492209
0.0492154
0.0492094
0.0492155
0.0492155
0.0492095
0.0491999
0.0492027
0.0492435
0.0493094
0.0493743
0.0492264
0.0487555
0.0486395
0.0490075
0.0491808
0.049211
0.0491845
0.0491052
0.049071
0.0492046
0.0495798
0.0497684
0.0494538
0.0492715
0.0492558
0.0492554
0.0492563
0.0492568
0.049257
0.049258
0.0492604
0.0492694
0.0493216
0.0493405
0.0492923
0.0580357
0.0588137
0.0589876
0.0584939
0.0574997
0.0545354
0.047165
0.0390271
0.0360122
0.0376981
0.0414087
0.0500506
0.0673991
0.0604438
0.0591954
0.0596893
0.0595318
0.0584705
0.0548437
0.0484661
0.0493474
0.0576731
0.0621499
0.0619799
0.0616007
0.0610819
0.0605522
0.0602003
0.0599373
0.0596955
0.0594062
0.0590637
0.0592623
0.0597162
0.0599128
0.0599125
0.0597429
0.0593011
0.0590465
0.0636781
0.0647542
0.0598413
0.0561738
0.0568932
0.0571003
0.0574989
0.0582275
0.059471
0.0602514
0.0604052
0.0602636
0.0598502
0.0595876
0.0597662
0.0598705
0.0599228
0.0597748
0.0595077
0.0593951
0.0594097
0.0593894
0.0593069
0.0589988
0.0576552
0.0557812
0.0558597
0.0572268
0.0578269
0.0579884
0.0582035
0.0585486
0.0588471
0.0589001
0.0588091
0.0588836
0.0592541
0.0596999
0.0599444
0.0601112
0.0602091
0.0603286
0.0603811
0.0602527
0.0601351
0.060017
0.0599639
0.0599773
0.0598237
0.0595463
0.0593145
0.0594118
0.0597619
0.0600167
0.0600986
0.0601319
0.0601604
0.060283
0.060524
0.0605718
0.0603299
0.0600668
0.0597205
0.0596035
0.0597189
0.0599775
0.0600874
0.0601246
0.0600314
0.059183
0.0591233
0.0746112
0.0847787
0.0809133
0.0569
0.0570319
0.0594389
0.0599508
0.0599463
0.059547
0.058963
0.0587246
0.0587227
0.0583939
0.0577501
0.0575733
0.0588396
0.0598401
0.0600975
0.0600999
0.0601009
0.0600855
0.060061
0.05952
0.0585595
0.0610546
0.0597599
0.0597907
0.0599531
0.0601041
0.0602597
0.0603594
0.0603096
0.060189
0.0600867
0.0600714
0.0601082
0.0601301
0.060138
0.060143
0.0601486
0.0601535
0.0601625
0.0601659
0.0601321
0.060382
0.0620889
0.0624963
0.0747795
0.0616368
0.0600799
0.0600965
0.0600838
0.0600881
0.0600963
0.0601044
0.0601035
0.0601068
0.0601066
0.0601043
0.0600979
0.0600972
0.0601244
0.060157
0.0601832
0.0601768
0.0600583
0.0596974
0.0596165
0.0598314
0.0599764
0.0600395
0.0600605
0.0600622
0.0600598
0.0600772
0.0602119
0.0607032
0.0605117
0.0601665
0.0601348
0.0601364
0.0601371
0.0601367
0.0601359
0.0601299
0.0601218
0.0600714
0.0604691
0.0602688
0.0601234
0.0687036
0.0700047
0.0702215
0.0698792
0.069128
0.0676202
0.0660669
0.0642965
0.0632842
0.0605642
0.0552651
0.0591801
0.0724519
0.0734646
0.0711945
0.0703742
0.0696787
0.0687815
0.0657695
0.0582581
0.0567558
0.0642188
0.0709479
0.0711856
0.071023
0.070981
0.0709299
0.0708697
0.0708119
0.0708183
0.0704897
0.0697063
0.069663
0.0701326
0.070445
0.0705008
0.0702209
0.0693772
0.0693809
0.0802094
0.0757932
0.0679382
0.0614064
0.0645057
0.0664701
0.0657916
0.0656137
0.0684456
0.0706184
0.0709769
0.0709411
0.0708595
0.0708116
0.070791
0.0707728
0.070726
0.0706575
0.0706293
0.0706549
0.0706939
0.0706597
0.0705448
0.0701523
0.0687613
0.0666973
0.0672671
0.0688435
0.0693165
0.0690192
0.069044
0.0694348
0.0698852
0.0699694
0.0698342
0.0696836
0.0699455
0.070172
0.070659
0.0708508
0.0710239
0.071053
0.0710417
0.0708602
0.0708476
0.0708838
0.0709604
0.0710286
0.0710277
0.0708377
0.0703951
0.0700458
0.0702913
0.0707244
0.0709719
0.0710044
0.071046
0.0711249
0.0713901
0.0713474
0.0712853
0.0711579
0.071011
0.0708251
0.0708539
0.0709483
0.0710153
0.0709813
0.0707747
0.0690115
0.0670856
0.08484
0.085964
0.0831481
0.0610055
0.0682926
0.070543
0.0709213
0.0709858
0.0709174
0.0706974
0.0703569
0.0698738
0.0691596
0.0679225
0.0662576
0.0674831
0.0700524
0.0709181
0.0708971
0.070841
0.0708451
0.0710301
0.0696535
0.069588
0.0777444
0.0714638
0.0709246
0.0709744
0.0710547
0.0711903
0.0713379
0.0712914
0.0710818
0.0709726
0.0709723
0.0709857
0.0709929
0.0709935
0.0709916
0.0709866
0.0709785
0.0709522
0.0708591
0.070473
0.0704274
0.0767068
0.0782415
0.105079
0.0751488
0.0701551
0.0707222
0.0708814
0.0709293
0.0709618
0.0710254
0.0710574
0.0710546
0.0710159
0.0709895
0.0709463
0.0709399
0.0709489
0.070961
0.0709706
0.0709657
0.070921
0.0707573
0.0705821
0.0706255
0.0707634
0.0708562
0.0709053
0.0709244
0.0709316
0.0709329
0.0709902
0.0714019
0.0714753
0.0710677
0.0709743
0.0709921
0.070993
0.0709921
0.0709805
0.0709426
0.070885
0.0706403
0.0728976
0.0716481
0.0707566
0.0753096
0.0796169
0.079977
0.0796682
0.0789339
0.0790736
0.0794838
0.0801283
0.0804492
0.0794481
0.0754968
0.0732692
0.0789925
0.081576
0.0812453
0.0809833
0.0804835
0.0796773
0.0764226
0.0707865
0.0708847
0.0781328
0.0808744
0.0812826
0.0814284
0.0815723
0.0816677
0.081744
0.0818366
0.0820188
0.0820936
0.0814399
0.0810323
0.0810867
0.0811534
0.0811147
0.0808492
0.0795387
0.0777352
0.090286
0.0757802
0.0677145
0.069106
0.0764607
0.0786658
0.0768466
0.072565
0.0749394
0.0798457
0.0812962
0.0815595
0.0816107
0.0816344
0.0816356
0.0816202
0.0815805
0.0815477
0.0815357
0.0815649
0.0815964
0.0815684
0.0813553
0.0807701
0.0800053
0.0795711
0.0800598
0.0804777
0.080376
0.0800203
0.0797612
0.0800247
0.0805543
0.0808961
0.0809136
0.0810677
0.0808476
0.0807318
0.079948
0.0805462
0.0807294
0.0809802
0.0809861
0.0811881
0.0815377
0.0817607
0.0818713
0.0820056
0.082077
0.0820721
0.0817811
0.0813148
0.0810472
0.0813359
0.0816047
0.0817579
0.0816659
0.0815295
0.0816693
0.0817998
0.0819817
0.0820336
0.082061
0.0820828
0.0820236
0.0819116
0.0818534
0.0818112
0.0817105
0.0805808
0.0705496
0.09362
0.0888727
0.076374
0.070107
0.0817273
0.0816791
0.0818097
0.0818681
0.0818866
0.0818558
0.0817756
0.0815738
0.0810978
0.0798213
0.0774282
0.0760966
0.0783287
0.0810897
0.0816488
0.0816688
0.0817801
0.0821447
0.0793827
0.0740904
0.085128
0.0826331
0.0820295
0.082018
0.0820114
0.0821173
0.0823881
0.0822808
0.0819419
0.0818315
0.0818214
0.0818259
0.0818311
0.0818396
0.0818512
0.0818405
0.0817927
0.0816781
0.0814517
0.0808145
0.0793095
0.0989792
0.0859131
0.112874
0.0833671
0.0802476
0.0814301
0.0816926
0.0817504
0.0817896
0.0818199
0.0818416
0.0818236
0.0818053
0.0817735
0.0817392
0.0817373
0.0817579
0.0817915
0.0818062
0.0818018
0.0817612
0.0816362
0.0814521
0.0814158
0.0815384
0.0816602
0.0817287
0.0817573
0.0817617
0.0817503
0.0817465
0.081904
0.0823427
0.0821465
0.0816414
0.0818015
0.0818337
0.0818272
0.0818027
0.0816864
0.0815353
0.0811019
0.0839796
0.0833671
0.0812467
0.0824397
0.0891009
0.0904139
0.0906359
0.0899668
0.0896371
0.0890236
0.0904078
0.0903898
0.0894747
0.0867489
0.0827747
0.084706
0.0887726
0.0914339
0.0918307
0.0919516
0.090105
0.0876198
0.0815258
0.0841756
0.0895343
0.0916892
0.0922308
0.0921992
0.0921112
0.0921934
0.0923328
0.0926014
0.0931018
0.0932253
0.0925595
0.0922403
0.0922523
0.0922527
0.0921517
0.0917454
0.090366
0.0885691
0.0993248
0.0771296
0.0713638
0.0845963
0.0917088
0.0922054
0.0901989
0.0825155
0.0803184
0.083839
0.0887814
0.0911338
0.0919596
0.0922444
0.0923609
0.0923874
0.0923867
0.0923809
0.0924022
0.0925154
0.0924907
0.0921903
0.0913473
0.0907733
0.0906368
0.090983
0.0914244
0.0916312
0.0915413
0.0911905
0.0908137
0.0910548
0.0913123
0.0915469
0.0917494
0.0917168
0.0914662
0.0907102
0.0904461
0.0907339
0.0910427
0.0909802
0.0907291
0.0906362
0.0918454
0.0922393
0.0926684
0.0928282
0.0930159
0.0930933
0.0930154
0.092469
0.0917466
0.0916831
0.0921055
0.0923863
0.0924354
0.0924098
0.0923816
0.092416
0.092573
0.0927825
0.092924
0.0929712
0.0928331
0.0926121
0.0924821
0.0924676
0.092481
0.0922905
0.0863335
0.10391
0.0796021
0.0781813
0.089493
0.0941556
0.092733
0.0926216
0.0926637
0.0926815
0.0926805
0.0926532
0.0926124
0.0925617
0.0923422
0.0905857
0.0866117
0.0870432
0.0905204
0.0921485
0.0924723
0.092577
0.0928653
0.0903558
0.0851913
0.0927661
0.0927724
0.0926134
0.0926364
0.0926308
0.0931949
0.0943023
0.0940654
0.0928545
0.0926753
0.0926347
0.0926361
0.0926897
0.092898
0.0932303
0.093144
0.0927233
0.0923667
0.0921031
0.0916018
0.0898507
0.113225
0.0941875
0.113245
0.0978058
0.0901834
0.0921326
0.0924722
0.0925563
0.0925791
0.092585
0.0925976
0.0926051
0.0926103
0.0925969
0.0925899
0.0925787
0.0926127
0.0926277
0.092635
0.0926173
0.0925241
0.092327
0.0921051
0.0921417
0.0923281
0.0924739
0.0925459
0.0925783
0.0925866
0.0925788
0.0925649
0.0926191
0.0930476
0.0933246
0.0921282
0.0925832
0.0926792
0.0927098
0.092681
0.0925265
0.0923956
0.0924858
0.0940494
0.0944049
0.0916875
0.093558
0.100911
0.102159
0.102042
0.101231
0.0994962
0.098338
0.0993043
0.0997791
0.0995188
0.0975482
0.0931835
0.0886606
0.0918502
0.0983351
0.103523
0.106435
0.106474
0.100815
0.0927298
0.0914663
0.0958802
0.10193
0.104549
0.101949
0.101414
0.102187
0.103796
0.104363
0.104472
0.103652
0.102953
0.103025
0.103231
0.103281
0.103193
0.102863
0.101708
0.100718
0.111178
0.0971221
0.0870002
0.0988536
0.102338
0.103102
0.10173
0.0919558
0.0850043
0.0881931
0.0943336
0.098308
0.100696
0.10215
0.102794
0.102964
0.102981
0.102915
0.102986
0.10305
0.103076
0.102792
0.102096
0.101512
0.101378
0.10177
0.102244
0.102513
0.102536
0.102379
0.102239
0.102035
0.101985
0.101783
0.101461
0.101778
0.10219
0.102246
0.10221
0.102471
0.103023
0.103054
0.101834
0.101026
0.0991379
0.0997881
0.100658
0.103028
0.103566
0.103724
0.103748
0.103422
0.102727
0.102382
0.102649
0.103137
0.103405
0.103529
0.103569
0.103339
0.103137
0.103014
0.103301
0.103498
0.103496
0.103374
0.103276
0.10323
0.10327
0.103561
0.104963
0.114141
0.0903949
0.0809443
0.098664
0.104192
0.103385
0.103297
0.103408
0.103364
0.103279
0.103268
0.103305
0.103308
0.1032
0.102525
0.099092
0.096662
0.0999396
0.102537
0.103235
0.103408
0.103279
0.101749
0.100502
0.102552
0.10288
0.102924
0.10278
0.102601
0.10385
0.107856
0.108855
0.104294
0.103586
0.103465
0.10343
0.103472
0.103713
0.104231
0.104573
0.104304
0.103133
0.102886
0.102575
0.103896
0.119824
0.100067
0.111759
0.09904
0.101634
0.10307
0.103305
0.103361
0.103364
0.103359
0.103373
0.10339
0.103396
0.103405
0.10342
0.103491
0.103543
0.103571
0.103532
0.103317
0.103021
0.102858
0.102881
0.103036
0.103191
0.103292
0.103355
0.103391
0.103408
0.103419
0.103423
0.103431
0.103633
0.10396
0.103012
0.103368
0.103443
0.103461
0.103468
0.103374
0.103293
0.103652
0.10554
0.104688
0.102673
0.107167
0.11143
0.112579
0.11228
0.111536
0.109164
0.108582
0.110107
0.112234
0.112474
0.111919
0.107807
0.0967631
0.0932281
0.104726
0.119728
0.128354
0.124845
0.116829
0.107451
0.10185
0.101756
0.102275
0.109602
0.108806
0.108684
0.117715
0.123726
0.122324
0.117388
0.113186
0.112655
0.113422
0.11391
0.114065
0.114128
0.114024
0.11326
0.112866
0.119205
0.115014
0.107272
0.110474
0.111936
0.112869
0.112001
0.103371
0.0948475
0.0980894
0.103357
0.106836
0.109003
0.110609
0.111298
0.111489
0.111221
0.111243
0.11206
0.113027
0.113612
0.11354
0.113254
0.112625
0.112249
0.112316
0.112693
0.112761
0.1126
0.112322
0.112446
0.11279
0.112925
0.112721
0.112478
0.11266
0.113038
0.11322
0.113043
0.113324
0.114044
0.114234
0.113954
0.113442
0.112468
0.110454
0.110846
0.112368
0.113344
0.113974
0.114352
0.114127
0.113585
0.113023
0.113256
0.113725
0.114147
0.114354
0.114452
0.114338
0.113639
0.11348
0.113839
0.114105
0.114186
0.114217
0.114218
0.114261
0.114398
0.115033
0.117888
0.121841
0.10901
0.0933427
0.111038
0.114366
0.113702
0.113749
0.113968
0.113927
0.113815
0.113807
0.113893
0.113939
0.113819
0.113176
0.110675
0.107323
0.10968
0.112745
0.113749
0.114012
0.113709
0.112899
0.111943
0.112547
0.112916
0.113189
0.113093
0.11273
0.113382
0.120407
0.122703
0.114586
0.11411
0.114192
0.114205
0.114221
0.114269
0.114479
0.115422
0.117498
0.115221
0.11402
0.113616
0.129066
0.123506
0.108048
0.110683
0.103844
0.114428
0.114256
0.114176
0.114115
0.114007
0.113965
0.113991
0.114071
0.114113
0.114163
0.114223
0.114313
0.114387
0.114414
0.114358
0.114009
0.1137
0.113727
0.113875
0.113957
0.114013
0.114075
0.114139
0.114174
0.114191
0.114199
0.114206
0.114239
0.114312
0.11433
0.114134
0.114185
0.114197
0.1142
0.114209
0.114198
0.114187
0.114732
0.118159
0.115331
0.113403
0.119824
0.121947
0.12176
0.120731
0.119431
0.117451
0.117617
0.122392
0.124563
0.125214
0.12449
0.120669
0.108623
0.0972617
0.103231
0.11764
0.13691
0.133848
0.126472
0.122272
0.11898
0.112297
0.113273
0.110089
0.10823
0.119555
0.131906
0.138383
0.133587
0.12497
0.120753
0.121116
0.123128
0.124445
0.12486
0.125032
0.125171
0.12514
0.125417
0.128198
0.126501
0.121025
0.120435
0.121937
0.123064
0.123099
0.119583
0.113687
0.114746
0.117235
0.119044
0.12038
0.120987
0.11968
0.117461
0.117314
0.118707
0.120722
0.122399
0.123325
0.123772
0.123453
0.122735
0.121768
0.121587
0.121794
0.12199
0.122002
0.122339
0.122769
0.123212
0.123601
0.123611
0.1234
0.123422
0.123833
0.123991
0.123817
0.123663
0.124264
0.12474
0.124826
0.12479
0.124689
0.123975
0.123692
0.124303
0.12469
0.124767
0.124738
0.124773
0.124466
0.12421
0.123792
0.123918
0.124324
0.124946
0.124837
0.124283
0.124034
0.124293
0.124637
0.124883
0.125019
0.125183
0.125547
0.126024
0.126116
0.126012
0.127367
0.128225
0.122483
0.116154
0.12302
0.124756
0.124089
0.124132
0.124465
0.124496
0.124424
0.12437
0.124378
0.12434
0.124049
0.123286
0.121651
0.119046
0.119787
0.122137
0.123918
0.124385
0.124372
0.123673
0.122647
0.121771
0.12193
0.123788
0.124874
0.124673
0.124964
0.132014
0.133142
0.1251
0.125103
0.125059
0.125009
0.125008
0.125072
0.125357
0.126575
0.131119
0.129334
0.127222
0.127303
0.132983
0.113977
0.108297
0.120071
0.124191
0.126152
0.125624
0.125001
0.123886
0.123604
0.124138
0.124586
0.124758
0.124835
0.12486
0.124856
0.124844
0.124866
0.124932
0.124927
0.124745
0.124596
0.124688
0.124757
0.124766
0.124756
0.124823
0.124893
0.124927
0.124941
0.124954
0.124994
0.125037
0.12505
0.125014
0.124952
0.12495
0.124953
0.124956
0.124965
0.124969
0.124944
0.125269
0.127983
0.124934
0.124463
0.133254
0.132527
0.129677
0.125685
0.118683
0.118989
0.128725
0.138702
0.141154
0.139813
0.136589
0.130062
0.118913
0.107717
0.111622
0.126954
0.140916
0.13755
0.133719
0.132959
0.132981
0.131648
0.137835
0.126765
0.111521
0.116073
0.126114
0.140322
0.137821
0.131648
0.128583
0.128724
0.131717
0.134556
0.135635
0.135861
0.135994
0.136255
0.136971
0.138175
0.136233
0.131038
0.129443
0.131238
0.132592
0.132816
0.132115
0.130748
0.131058
0.132144
0.133014
0.133695
0.133708
0.129851
0.124681
0.126255
0.1295
0.131394
0.132591
0.133386
0.133566
0.132824
0.13066
0.128888
0.129082
0.130956
0.132685
0.133407
0.133563
0.133455
0.133461
0.133493
0.13328
0.133597
0.134176
0.13464
0.134867
0.134812
0.134861
0.13525
0.135476
0.135539
0.135547
0.135492
0.135321
0.135285
0.135478
0.135537
0.135528
0.13553
0.135517
0.135496
0.13527
0.134909
0.134457
0.13434
0.134497
0.134209
0.134334
0.134683
0.13503
0.135472
0.135659
0.135897
0.136206
0.136572
0.136712
0.136638
0.136478
0.136603
0.136779
0.135368
0.133907
0.134877
0.13532
0.134683
0.134785
0.13508
0.135181
0.135106
0.134869
0.134598
0.134449
0.134342
0.134164
0.133524
0.131794
0.130494
0.131387
0.133214
0.134135
0.134409
0.133939
0.132557
0.130667
0.13024
0.134016
0.137356
0.138074
0.137929
0.141131
0.141066
0.137512
0.137129
0.136187
0.135898
0.135909
0.13632
0.137474
0.139376
0.142372
0.140162
0.137466
0.137885
0.132778
0.117324
0.113659
0.13216
0.136587
0.136397
0.136098
0.135505
0.134809
0.135078
0.135452
0.13556
0.13559
0.135597
0.135527
0.135425
0.135342
0.135341
0.135386
0.135449
0.135487
0.135528
0.13561
0.135646
0.135599
0.135518
0.135568
0.135638
0.135658
0.135685
0.135763
0.135906
0.135955
0.135868
0.135763
0.135705
0.1357
0.135685
0.135691
0.135689
0.135709
0.135773
0.135987
0.136499
0.135945
0.135736
0.144025
0.142134
0.136563
0.123625
0.116529
0.120049
0.138019
0.151576
0.153224
0.150373
0.14601
0.140451
0.133724
0.128763
0.136016
0.145953
0.146688
0.143855
0.140711
0.140109
0.13933
0.139396
0.140859
0.129381
0.115499
0.119959
0.137636
0.146939
0.143752
0.139604
0.136239
0.135046
0.137999
0.144
0.1465
0.146563
0.14661
0.146768
0.146913
0.147069
0.145424
0.141486
0.139756
0.140854
0.142092
0.142858
0.143192
0.143467
0.144193
0.145133
0.145817
0.145909
0.144449
0.139108
0.133937
0.135837
0.139628
0.141876
0.142804
0.143364
0.143333
0.142589
0.140764
0.139193
0.140018
0.142532
0.144263
0.144829
0.144971
0.144797
0.144541
0.142918
0.140727
0.143519
0.14549
0.145513
0.145746
0.145797
0.145949
0.146117
0.146229
0.146264
0.146242
0.146148
0.146049
0.146038
0.146185
0.146301
0.146322
0.146312
0.146269
0.146276
0.146206
0.146082
0.145785
0.146008
0.147449
0.14601
0.145083
0.145341
0.14612
0.146681
0.14702
0.146875
0.146567
0.146586
0.146682
0.146629
0.146618
0.146687
0.146704
0.146415
0.146136
0.146169
0.146092
0.145634
0.145541
0.145777
0.145906
0.145886
0.145635
0.145203
0.144774
0.144662
0.14485
0.144634
0.14343
0.141239
0.141246
0.143052
0.144566
0.145036
0.144993
0.144079
0.14232
0.14121
0.14313
0.1465
0.148487
0.148356
0.148659
0.148868
0.149704
0.14978
0.14806
0.147437
0.147518
0.148476
0.15044
0.151621
0.151453
0.148742
0.147117
0.147165
0.147559
0.142942
0.140533
0.146315
0.146505
0.146448
0.146409
0.146403
0.146398
0.146629
0.146547
0.146384
0.146346
0.146251
0.146052
0.145765
0.145656
0.145804
0.145984
0.14612
0.146207
0.146276
0.146343
0.146373
0.146331
0.146242
0.146317
0.146411
0.146374
0.146444
0.146552
0.146676
0.146685
0.146575
0.146461
0.146435
0.146418
0.146436
0.146408
0.146407
0.14643
0.146518
0.146735
0.146969
0.146717
0.146592
0.154525
0.151971
0.144309
0.131104
0.123119
0.128197
0.15101
0.161862
0.159099
0.156416
0.153294
0.148703
0.144961
0.145893
0.152067
0.156203
0.15601
0.152791
0.144402
0.137275
0.136373
0.14393
0.14016
0.127219
0.121191
0.133934
0.153065
0.154083
0.150763
0.146741
0.140742
0.134817
0.139848
0.150743
0.155172
0.155405
0.155007
0.154937
0.155415
0.155418
0.154494
0.15249
0.151607
0.152328
0.153325
0.153932
0.153997
0.153916
0.154206
0.155135
0.155982
0.156314
0.155194
0.150775
0.146621
0.147407
0.149464
0.150932
0.151091
0.151227
0.151748
0.152328
0.152123
0.151728
0.152563
0.154354
0.155418
0.156015
0.156032
0.156105
0.156242
0.152918
0.146594
0.154907
0.15565
0.155811
0.155943
0.156438
0.156605
0.156789
0.156872
0.156877
0.15675
0.156573
0.156974
0.156389
0.156512
0.156596
0.156614
0.156575
0.15674
0.156813
0.156879
0.156825
0.156819
0.15767
0.159663
0.15745
0.156355
0.156683
0.158198
0.159185
0.158703
0.157644
0.156281
0.155581
0.1556
0.155712
0.155878
0.156219
0.156668
0.156951
0.156981
0.156983
0.15692
0.156707
0.156478
0.156378
0.156597
0.156613
0.156535
0.156152
0.155472
0.154939
0.154241
0.153621
0.152592
0.152237
0.153254
0.154928
0.155883
0.156268
0.156424
0.156347
0.155891
0.154928
0.154388
0.154905
0.156257
0.156881
0.156907
0.157142
0.161427
0.162336
0.160578
0.161517
0.162054
0.162673
0.16434
0.162411
0.159754
0.157917
0.157282
0.157224
0.157288
0.156915
0.156458
0.157037
0.157131
0.157091
0.157084
0.157064
0.157325
0.157947
0.157866
0.15714
0.156834
0.156608
0.156328
0.155989
0.155912
0.156187
0.156544
0.156743
0.156842
0.156898
0.156938
0.156967
0.156989
0.156984
0.157045
0.157101
0.157036
0.157272
0.15741
0.15738
0.157297
0.157219
0.157176
0.157157
0.157121
0.157093
0.157091
0.157101
0.157128
0.15725
0.157494
0.157547
0.15746
0.157271
0.161166
0.159
0.155603
0.152616
0.150171
0.161275
0.171798
0.169435
0.166563
0.163747
0.159247
0.154031
0.152456
0.15705
0.163122
0.165838
0.164532
0.158139
0.148318
0.142216
0.144563
0.163809
0.167466
0.149722
0.149837
0.163019
0.165515
0.16347
0.160019
0.154495
0.143607
0.135668
0.138226
0.145782
0.158524
0.163652
0.163343
0.16401
0.164298
0.163897
0.16348
0.163009
0.163143
0.163932
0.164532
0.164553
0.163652
0.162645
0.16314
0.164703
0.166006
0.166524
0.166427
0.165331
0.163082
0.161865
0.161851
0.161134
0.159739
0.159755
0.160972
0.162498
0.163236
0.163452
0.164078
0.165927
0.167922