/*--------------------------------*- C++ -*----------------------------------*\
  =========                 |
  \\      /  F ield         | OpenFOAM: The Open Source CFD Toolbox
   \\    /   O peration     | Website:  https://openfoam.org
    \\  /    A nd           | Version:  8
     \\/     M anipulation  |
\*---------------------------------------------------------------------------*/
FoamFile
{
    version     2.0;
    format      ascii;
    class       volScalarField;
    location    "800";
    object      p;
}
// * * * * * * * * * * * * * * * * * * * * * * * * * * * * * * * * * * * * * //

dimensions      [1 -1 -2 0 0 0 0];

internalField   nonuniform List<scalar> 
20000
(
-548458
-548459
-548459
-548460
-548460
-548459
-548459
-548456
-548445
-548429
-548416
-548409
-548408
-548422
-548429
-548413
-548396
-548404
-548418
-548425
-548431
-548440
-548457
-548479
-548502
-548519
-548530
-548538
-548544
-548551
-548560
-548573
-548596
-548637
-548704
-548799
-548907
-549003
-549074
-549124
-549160
-549190
-549220
-549254
-549296
-549338
-549372
-549394
-549409
-549420
-549432
-549448
-549472
-549498
-549519
-549533
-549542
-549548
-549553
-549569
-549611
-549666
-549698
-549706
-549707
-549707
-549707
-549708
-549708
-549707
-549706
-549701
-549694
-549685
-549673
-549658
-549643
-549630
-549622
-549618
-549616
-549614
-549616
-549614
-549614
-549613
-549611
-549606
-549598
-549589
-549583
-549580
-549578
-549576
-549574
-549574
-549575
-549577
-549579
-549582
-549585
-549591
-549603
-549622
-549645
-549667
-549685
-549697
-549705
-549713
-549722
-549733
-549754
-549786
-549824
-549854
-549875
-549889
-549901
-549915
-549934
-549960
-549985
-550003
-550014
-550020
-550024
-550029
-550036
-550044
-550050
-550054
-550055
-550055
-550054
-550052
-550049
-550047
-550045
-550042
-550035
-550025
-550014
-550006
-550001
-549999
-549997
-549995
-549993
-549989
-549983
-549975
-549968
-549964
-549961
-549960
-549960
-549960
-549961
-549961
-549962
-549965
-549969
-549975
-549981
-549989
-549999
-550013
-550027
-550038
-550046
-550055
-550065
-550078
-550091
-550099
-550103
-550104
-550105
-550105
-550106
-550107
-550110
-550111
-550111
-550108
-550109
-550109
-550109
-550109
-550109
-550109
-550110
-550110
-550109
-550109
-550109
-550109
-550109
-550109
-553399
-553400
-553400
-553401
-553402
-553403
-553404
-553404
-553397
-553380
-553362
-553349
-553342
-553362
-553379
-553370
-553360
-553363
-553365
-553368
-553375
-553384
-553400
-553421
-553443
-553461
-553473
-553480
-553486
-553493
-553502
-553518
-553544
-553588
-553653
-553741
-553844
-553943
-554020
-554072
-554108
-554136
-554163
-554192
-554228
-554267
-554305
-554332
-554351
-554364
-554379
-554397
-554421
-554444
-554463
-554474
-554481
-554487
-554495
-554513
-554555
-554607
-554640
-554649
-554650
-554650
-554649
-554648
-554648
-554648
-554647
-554644
-554638
-554629
-554616
-554601
-554586
-554573
-554565
-554562
-554562
-554565
-554561
-554564
-554557
-554554
-554551
-554545
-554538
-554530
-554525
-554521
-554519
-554517
-554516
-554516
-554518
-554520
-554522
-554525
-554528
-554535
-554546
-554563
-554583
-554604
-554623
-554638
-554650
-554660
-554669
-554678
-554696
-554726
-554761
-554792
-554816
-554833
-554848
-554863
-554883
-554909
-554933
-554950
-554959
-554964
-554968
-554973
-554980
-554988
-554994
-554997
-554998
-554998
-554997
-554995
-554993
-554990
-554987
-554983
-554976
-554967
-554956
-554948
-554944
-554942
-554940
-554938
-554935
-554931
-554926
-554919
-554913
-554908
-554905
-554903
-554904
-554904
-554904
-554905
-554906
-554910
-554914
-554920
-554925
-554932
-554942
-554955
-554968
-554979
-554988
-554997
-555008
-555021
-555034
-555041
-555045
-555047
-555048
-555048
-555049
-555050
-555052
-555052
-555052
-555056
-555052
-555052
-555052
-555052
-555052
-555052
-555052
-555052
-555052
-555052
-555052
-555052
-555052
-555052
-558377
-558377
-558377
-558377
-558379
-558382
-558386
-558390
-558387
-558372
-558350
-558331
-558320
-558342
-558354
-558355
-558357
-558355
-558350
-558353
-558361
-558369
-558381
-558398
-558419
-558437
-558452
-558462
-558469
-558477
-558489
-558508
-558537
-558580
-558642
-558726
-558829
-558930
-559008
-559061
-559097
-559127
-559152
-559175
-559201
-559231
-559267
-559300
-559328
-559350
-559369
-559386
-559405
-559424
-559441
-559453
-559459
-559467
-559479
-559498
-559535
-559585
-559620
-559634
-559638
-559636
-559633
-559630
-559627
-559624
-559623
-559621
-559617
-559609
-559597
-559583
-559569
-559557
-559547
-559542
-559540
-559539
-559528
-559537
-559533
-559530
-559526
-559521
-559515
-559509
-559504
-559500
-559498
-559497
-559496
-559496
-559498
-559500
-559503
-559505
-559509
-559516
-559526
-559539
-559556
-559577
-559602
-559627
-559643
-559651
-559654
-559656
-559674
-559707
-559741
-559774
-559801
-559822
-559838
-559852
-559871
-559895
-559919
-559935
-559943
-559947
-559950
-559955
-559961
-559969
-559975
-559978
-559978
-559978
-559977
-559975
-559973
-559970
-559966
-559962
-559956
-559948
-559938
-559930
-559925
-559922
-559921
-559919
-559915
-559911
-559907
-559901
-559895
-559889
-559886
-559884
-559883
-559883
-559883
-559885
-559889
-559893
-559897
-559902
-559907
-559914
-559923
-559935
-559947
-559957
-559966
-559975
-559987
-560001
-560014
-560021
-560025
-560027
-560028
-560029
-560030
-560030
-560030
-560030
-560031
-560035
-560033
-560032
-560033
-560033
-560033
-560033
-560033
-560033
-560033
-560032
-560032
-560032
-560032
-560032
-563388
-563387
-563387
-563387
-563389
-563393
-563401
-563410
-563413
-563401
-563378
-563357
-563348
-563347
-563339
-563347
-563367
-563374
-563372
-563383
-563396
-563401
-563406
-563417
-563433
-563452
-563469
-563486
-563503
-563522
-563541
-563561
-563584
-563621
-563684
-563779
-563891
-563986
-564048
-564088
-564121
-564152
-564176
-564195
-564216
-564243
-564280
-564318
-564352
-564378
-564396
-564409
-564422
-564437
-564454
-564468
-564478
-564488
-564501
-564521
-564558
-564606
-564644
-564662
-564668
-564666
-564661
-564655
-564649
-564642
-564638
-564635
-564632
-564626
-564616
-564606
-564594
-564582
-564570
-564561
-564556
-564551
-564540
-564548
-564547
-564545
-564541
-564535
-564530
-564525
-564521
-564517
-564515
-564514
-564514
-564514
-564516
-564518
-564521
-564524
-564529
-564537
-564547
-564559
-564576
-564605
-564646
-564682
-564696
-564692
-564679
-564671
-564693
-564737
-564769
-564797
-564824
-564845
-564861
-564875
-564892
-564915
-564938
-564954
-564963
-564966
-564970
-564974
-564980
-564988
-564995
-564998
-564998
-564996
-564994
-564993
-564990
-564987
-564982
-564978
-564974
-564967
-564958
-564949
-564943
-564941
-564939
-564937
-564934
-564930
-564925
-564920
-564914
-564908
-564904
-564901
-564898
-564893
-564896
-564901
-564907
-564912
-564916
-564920
-564926
-564933
-564941
-564953
-564965
-564976
-564986
-564996
-565010
-565024
-565034
-565039
-565042
-565043
-565045
-565047
-565048
-565048
-565047
-565047
-565049
-565051
-565050
-565050
-565051
-565051
-565051
-565051
-565051
-565051
-565051
-565050
-565050
-565049
-565050
-565050
-568436
-568434
-568432
-568432
-568432
-568434
-568439
-568447
-568451
-568446
-568436
-568425
-568417
-568389
-568370
-568382
-568411
-568427
-568436
-568457
-568471
-568469
-568466
-568473
-568487
-568505
-568526
-568552
-568585
-568617
-568644
-568660
-568677
-568709
-568781
-568896
-569010
-569085
-569123
-569143
-569172
-569205
-569231
-569250
-569273
-569306
-569345
-569383
-569414
-569438
-569453
-569464
-569474
-569487
-569504
-569521
-569533
-569543
-569557
-569580
-569622
-569673
-569708
-569722
-569727
-569726
-569721
-569715
-569708
-569700
-569693
-569689
-569685
-569681
-569676
-569668
-569657
-569644
-569630
-569619
-569611
-569605
-569597
-569601
-569601
-569598
-569594
-569588
-569583
-569578
-569574
-569571
-569569
-569568
-569567
-569568
-569570
-569573
-569576
-569581
-569589
-569600
-569614
-569633
-569660
-569701
-569751
-569785
-569793
-569781
-569753
-569746
-569772
-569810
-569832
-569853
-569877
-569899
-569916
-569930
-569948
-569971
-569993
-570009
-570019
-570024
-570028
-570032
-570039
-570047
-570054
-570058
-570059
-570056
-570049
-570048
-570046
-570042
-570037
-570033
-570029
-570022
-570013
-570005
-570000
-569997
-569995
-569992
-569989
-569985
-569982
-569976
-569970
-569964
-569958
-569950
-569942
-569928
-569941
-569953
-569961
-569966
-569972
-569980
-569988
-569998
-570009
-570022
-570034
-570045
-570054
-570064
-570076
-570086
-570092
-570094
-570096
-570097
-570099
-570101
-570103
-570103
-570102
-570103
-570105
-570107
-570106
-570106
-570106
-570107
-570107
-570107
-570107
-570107
-570106
-570106
-570105
-570104
-570104
-570105
-573534
-573527
-573521
-573516
-573510
-573501
-573491
-573484
-573483
-573486
-573494
-573505
-573510
-573489
-573476
-573484
-573504
-573521
-573534
-573551
-573560
-573560
-573560
-573566
-573579
-573598
-573623
-573656
-573697
-573734
-573757
-573774
-573792
-573827
-573907
-574028
-574137
-574200
-574227
-574234
-574261
-574294
-574321
-574340
-574366
-574403
-574441
-574474
-574502
-574526
-574544
-574555
-574565
-574578
-574596
-574615
-574629
-574640
-574656
-574685
-574731
-574778
-574803
-574811
-574812
-574811
-574808
-574804
-574799
-574793
-574787
-574783
-574780
-574778
-574774
-574767
-574758
-574745
-574731
-574717
-574707
-574700
-574694
-574693
-574692
-574689
-574684
-574679
-574674
-574669
-574666
-574662
-574659
-574657
-574657
-574659
-574661
-574663
-574667
-574674
-574686
-574702
-574723
-574750
-574785
-574827
-574869
-574897
-574910
-574906
-574879
-574881
-574902
-574923
-574929
-574945
-574969
-574991
-575008
-575024
-575043
-575065
-575086
-575104
-575116
-575122
-575125
-575129
-575134
-575142
-575148
-575153
-575156
-575154
-575142
-575143
-575141
-575136
-575130
-575124
-575118
-575111
-575105
-575100
-575095
-575091
-575088
-575084
-575081
-575078
-575074
-575069
-575064
-575059
-575051
-575038
-575029
-575006
-575031
-575046
-575054
-575062
-575073
-575089
-575104
-575116
-575126
-575137
-575146
-575153
-575159
-575166
-575173
-575180
-575185
-575187
-575188
-575189
-575191
-575193
-575195
-575195
-575196
-575197
-575199
-575200
-575200
-575200
-575200
-575200
-575201
-575201
-575201
-575200
-575200
-575199
-575198
-575195
-575196
-575198
-578683
-578671
-578658
-578648
-578638
-578624
-578603
-578580
-578569
-578572
-578587
-578615
-578637
-578632
-578627
-578627
-578636
-578650
-578661
-578662
-578665
-578676
-578688
-578699
-578714
-578733
-578760
-578796
-578837
-578871
-578894
-578911
-578931
-578967
-579043
-579160
-579271
-579339
-579367
-579374
-579400
-579422
-579437
-579455
-579484
-579522
-579565
-579600
-579628
-579654
-579676
-579693
-579709
-579730
-579757
-579781
-579797
-579810
-579829
-579860
-579899
-579927
-579937
-579936
-579932
-579931
-579931
-579930
-579929
-579930
-579931
-579930
-579926
-579919
-579911
-579903
-579893
-579883
-579868
-579853
-579840
-579832
-579826
-579823
-579820
-579817
-579813
-579808
-579802
-579797
-579793
-579790
-579788
-579786
-579785
-579787
-579789
-579791
-579795
-579803
-579817
-579838
-579864
-579893
-579925
-579961
-579999
-580028
-580043
-580051
-580048
-580056
-580073
-580081
-580071
-580077
-580095
-580117
-580137
-580156
-580177
-580200
-580220
-580235
-580246
-580252
-580255
-580258
-580264
-580272
-580278
-580283
-580287
-580288
-580277
-580277
-580275
-580268
-580259
-580250
-580242
-580237
-580235
-580231
-580227
-580221
-580216
-580212
-580209
-580206
-580204
-580201
-580197
-580194
-580188
-580175
-580178
-580162
-580179
-580188
-580193
-580203
-580221
-580241
-580254
-580261
-580267
-580274
-580281
-580287
-580292
-580297
-580303
-580310
-580315
-580317
-580319
-580320
-580322
-580323
-580324
-580325
-580327
-580328
-580329
-580330
-580331
-580330
-580330
-580332
-580332
-580332
-580332
-580331
-580330
-580330
-580329
-580327
-580327
-580330
-583855
-583843
-583829
-583818
-583809
-583801
-583789
-583771
-583758
-583757
-583768
-583791
-583811
-583812
-583806
-583800
-583804
-583819
-583835
-583841
-583841
-583853
-583871
-583887
-583904
-583921
-583939
-583965
-584002
-584038
-584064
-584082
-584103
-584141
-584218
-584333
-584442
-584508
-584539
-584553
-584565
-584570
-584576
-584602
-584641
-584686
-584734
-584772
-584798
-584822
-584852
-584888
-584925
-584964
-585001
-585029
-585047
-585063
-585084
-585109
-585129
-585136
-585132
-585121
-585109
-585103
-585103
-585105
-585110
-585116
-585121
-585118
-585110
-585097
-585083
-585069
-585059
-585048
-585035
-585022
-585010
-585002
-584996
-584990
-584986
-584982
-584977
-584972
-584966
-584961
-584957
-584955
-584953
-584952
-584952
-584954
-584956
-584959
-584962
-584967
-584980
-585001
-585030
-585059
-585089
-585123
-585160
-585193
-585211
-585224
-585247
-585255
-585257
-585250
-585242
-585242
-585252
-585270
-585291
-585315
-585343
-585370
-585388
-585398
-585403
-585409
-585417
-585424
-585431
-585438
-585444
-585447
-585449
-585450
-585452
-585449
-585445
-585436
-585425
-585413
-585403
-585399
-585399
-585398
-585394
-585387
-585381
-585377
-585374
-585373
-585372
-585372
-585369
-585367
-585366
-585368
-585381
-585376
-585384
-585389
-585389
-585394
-585405
-585417
-585425
-585430
-585436
-585443
-585451
-585457
-585463
-585468
-585474
-585480
-585485
-585487
-585488
-585489
-585490
-585491
-585492
-585493
-585494
-585495
-585497
-585498
-585499
-585499
-585498
-585500
-585500
-585500
-585499
-585499
-585498
-585497
-585497
-585499
-585498
-585500
-589040
-589036
-589028
-589019
-589011
-589007
-589004
-588997
-588989
-588988
-588995
-589009
-589029
-589038
-589027
-589008
-589002
-589019
-589046
-589069
-589088
-589105
-589121
-589133
-589147
-589153
-589154
-589166
-589196
-589232
-589265
-589290
-589316
-589363
-589449
-589562
-589656
-589708
-589734
-589752
-589741
-589738
-589757
-589800
-589850
-589897
-589938
-589971
-589996
-590023
-590063
-590118
-590181
-590238
-590282
-590310
-590328
-590342
-590357
-590368
-590374
-590374
-590370
-590361
-590351
-590346
-590345
-590345
-590345
-590343
-590338
-590329
-590318
-590305
-590290
-590274
-590259
-590246
-590234
-590222
-590211
-590203
-590197
-590193
-590189
-590184
-590176
-590171
-590166
-590162
-590159
-590157
-590156
-590155
-590156
-590158
-590160
-590163
-590167
-590172
-590180
-590196
-590223
-590255
-590288
-590323
-590361
-590393
-590412
-590425
-590454
-590448
-590439
-590434
-590437
-590440
-590448
-590462
-590480
-590502
-590532
-590565
-590589
-590599
-590602
-590607
-590619
-590629
-590636
-590642
-590646
-590648
-590645
-590640
-590653
-590653
-590648
-590638
-590627
-590615
-590603
-590598
-590602
-590602
-590598
-590591
-590584
-590581
-590579
-590577
-590577
-590580
-590580
-590581
-590586
-590607
-590620
-590618
-590626
-590627
-590623
-590622
-590624
-590630
-590635
-590640
-590646
-590654
-590662
-590669
-590675
-590680
-590685
-590689
-590692
-590693
-590694
-590694
-590695
-590695
-590696
-590697
-590698
-590700
-590701
-590703
-590704
-590704
-590704
-590704
-590704
-590704
-590704
-590704
-590704
-590703
-590703
-590705
-590705
-590705
-594260
-594264
-594266
-594264
-594258
-594251
-594244
-594236
-594228
-594225
-594230
-594245
-594270
-594289
-594276
-594247
-594232
-594250
-594280
-594310
-594345
-594376
-594396
-594404
-594414
-594410
-594397
-594402
-594429
-594466
-594504
-594540
-594576
-594627
-594714
-594821
-594901
-594942
-594962
-594975
-594961
-594964
-595000
-595046
-595090
-595127
-595155
-595183
-595214
-595253
-595306
-595376
-595452
-595518
-595563
-595590
-595604
-595613
-595619
-595625
-595627
-595627
-595626
-595628
-595633
-595635
-595633
-595626
-595614
-595599
-595582
-595569
-595557
-595546
-595532
-595517
-595500
-595485
-595472
-595460
-595448
-595437
-595430
-595426
-595423
-595420
-595414
-595409
-595405
-595401
-595399
-595397
-595396
-595396
-595397
-595399
-595403
-595407
-595411
-595415
-595421
-595431
-595452
-595486
-595527
-595570
-595608
-595634
-595647
-595655
-595674
-595658
-595651
-595662
-595670
-595676
-595684
-595696
-595713
-595734
-595763
-595798
-595827
-595843
-595849
-595853
-595864
-595873
-595878
-595883
-595886
-595887
-595884
-595881
-595893
-595896
-595889
-595879
-595869
-595859
-595848
-595843
-595847
-595847
-595842
-595834
-595827
-595823
-595822
-595821
-595819
-595824
-595831
-595836
-595837
-595867
-595883
-595885
-595885
-595877
-595873
-595873
-595878
-595882
-595886
-595890
-595897
-595905
-595912
-595919
-595923
-595927
-595930
-595932
-595933
-595935
-595935
-595935
-595936
-595936
-595937
-595938
-595940
-595941
-595943
-595944
-595945
-595946
-595946
-595945
-595946
-595946
-595946
-595946
-595946
-595946
-595946
-595945
-595948
-595947
-599526
-599536
-599548
-599559
-599559
-599547
-599528
-599510
-599496
-599490
-599493
-599506
-599525
-599543
-599542
-599529
-599519
-599533
-599556
-599579
-599612
-599646
-599669
-599685
-599699
-599692
-599677
-599684
-599714
-599751
-599794
-599842
-599890
-599939
-600006
-600093
-600168
-600210
-600229
-600242
-600239
-600251
-600284
-600322
-600359
-600388
-600406
-600428
-600466
-600520
-600590
-600674
-600754
-600815
-600854
-600875
-600887
-600896
-600905
-600915
-600925
-600933
-600939
-600945
-600947
-600944
-600934
-600921
-600905
-600887
-600868
-600851
-600837
-600824
-600810
-600795
-600779
-600764
-600752
-600740
-600727
-600714
-600703
-600694
-600690
-600688
-600687
-600685
-600683
-600680
-600678
-600676
-600675
-600676
-600677
-600679
-600682
-600686
-600690
-600694
-600699
-600708
-600727
-600763
-600812
-600860
-600895
-600914
-600923
-600928
-600936
-600924
-600919
-600932
-600943
-600950
-600958
-600970
-600988
-601015
-601051
-601086
-601113
-601129
-601135
-601138
-601144
-601151
-601157
-601162
-601165
-601167
-601167
-601170
-601178
-601178
-601171
-601161
-601152
-601145
-601137
-601134
-601134
-601131
-601125
-601115
-601107
-601103
-601103
-601103
-601102
-601108
-601118
-601125
-601127
-601153
-601159
-601161
-601152
-601150
-601152
-601158
-601164
-601167
-601170
-601173
-601179
-601187
-601194
-601200
-601204
-601207
-601209
-601211
-601212
-601212
-601213
-601213
-601214
-601216
-601216
-601217
-601218
-601220
-601221
-601222
-601223
-601224
-601225
-601224
-601224
-601224
-601225
-601225
-601226
-601227
-601227
-601226
-601228
-601228
-604835
-604849
-604870
-604891
-604899
-604882
-604849
-604818
-604800
-604792
-604793
-604800
-604807
-604814
-604825
-604837
-604848
-604861
-604873
-604887
-604909
-604934
-604957
-604979
-604998
-605000
-605002
-605016
-605047
-605088
-605145
-605210
-605260
-605290
-605322
-605378
-605451
-605507
-605536
-605554
-605560
-605573
-605598
-605629
-605664
-605694
-605710
-605730
-605771
-605832
-605915
-606005
-606077
-606126
-606157
-606176
-606189
-606203
-606220
-606239
-606258
-606274
-606284
-606288
-606283
-606272
-606256
-606239
-606224
-606210
-606200
-606192
-606182
-606163
-606139
-606115
-606094
-606078
-606066
-606057
-606046
-606033
-606019
-606007
-606000
-605998
-605999
-605999
-605998
-605996
-605994
-605992
-605992
-605993
-605994
-605996
-605997
-606001
-606005
-606009
-606015
-606026
-606049
-606087
-606135
-606179
-606212
-606231
-606240
-606246
-606248
-606238
-606231
-606243
-606254
-606262
-606270
-606284
-606309
-606348
-606389
-606419
-606437
-606447
-606452
-606452
-606455
-606464
-606473
-606479
-606482
-606483
-606485
-606490
-606494
-606494
-606487
-606478
-606472
-606468
-606466
-606464
-606459
-606452
-606443
-606430
-606419
-606416
-606419
-606423
-606426
-606433
-606441
-606448
-606456
-606459
-606450
-606455
-606452
-606461
-606469
-606476
-606480
-606482
-606484
-606487
-606494
-606503
-606511
-606517
-606521
-606524
-606525
-606526
-606527
-606527
-606528
-606529
-606531
-606532
-606533
-606533
-606534
-606535
-606536
-606536
-606537
-606538
-606539
-606539
-606539
-606539
-606540
-606541
-606543
-606545
-606547
-606549
-606547
-606545
-610192
-610207
-610227
-610244
-610247
-610228
-610193
-610165
-610151
-610144
-610139
-610133
-610123
-610115
-610125
-610157
-610194
-610211
-610223
-610235
-610248
-610259
-610278
-610295
-610305
-610318
-610338
-610373
-610418
-610481
-610559
-610625
-610656
-610662
-610667
-610693
-610747
-610811
-610861
-610895
-610912
-610926
-610947
-610976
-611011
-611045
-611069
-611093
-611135
-611202
-611286
-611364
-611421
-611459
-611487
-611508
-611528
-611550
-611573
-611595
-611615
-611628
-611635
-611635
-611631
-611622
-611609
-611592
-611577
-611568
-611567
-611572
-611569
-611549
-611519
-611487
-611455
-611433
-611419
-611410
-611400
-611387
-611373
-611362
-611356
-611353
-611353
-611352
-611350
-611348
-611346
-611344
-611344
-611344
-611345
-611347
-611349
-611352
-611356
-611362
-611372
-611388
-611411
-611441
-611477
-611517
-611553
-611578
-611591
-611598
-611599
-611588
-611582
-611593
-611604
-611612
-611622
-611642
-611678
-611723
-611759
-611779
-611792
-611800
-611804
-611805
-611808
-611817
-611826
-611831
-611833
-611834
-611835
-611836
-611838
-611839
-611837
-611834
-611831
-611830
-611832
-611829
-611818
-611806
-611793
-611777
-611764
-611764
-611771
-611780
-611789
-611795
-611799
-611803
-611801
-611774
-611760
-611782
-611800
-611815
-611824
-611828
-611830
-611831
-611834
-611840
-611848
-611858
-611866
-611872
-611875
-611877
-611878
-611879
-611879
-611880
-611881
-611883
-611884
-611885
-611886
-611886
-611887
-611887
-611888
-611888
-611889
-611890
-611890
-611890
-611890
-611890
-611891
-611892
-611894
-611897
-611900
-611904
-611900
-611898
-615605
-615603
-615599
-615595
-615585
-615572
-615561
-615557
-615554
-615544
-615529
-615511
-615490
-615475
-615484
-615522
-615564
-615587
-615607
-615622
-615623
-615617
-615626
-615633
-615624
-615637
-615682
-615755
-615836
-615922
-615995
-616042
-616055
-616051
-616049
-616062
-616096
-616147
-616204
-616254
-616287
-616308
-616331
-616362
-616399
-616436
-616471
-616505
-616552
-616616
-616692
-616758
-616803
-616831
-616855
-616881
-616908
-616935
-616961
-616984
-617002
-617013
-617015
-617014
-617012
-617010
-617002
-616987
-616970
-616958
-616958
-616964
-616965
-616945
-616923
-616898
-616869
-616841
-616821
-616808
-616795
-616781
-616767
-616756
-616750
-616749
-616748
-616745
-616741
-616737
-616734
-616733
-616733
-616734
-616735
-616736
-616738
-616742
-616750
-616760
-616774
-616789
-616804
-616823
-616848
-616882
-616919
-616949
-616968
-616977
-616981
-616977
-616975
-616984
-616994
-617003
-617018
-617045
-617085
-617126
-617154
-617170
-617182
-617194
-617205
-617210
-617211
-617212
-617214
-617216
-617218
-617218
-617218
-617216
-617215
-617216
-617221
-617226
-617228
-617229
-617231
-617226
-617209
-617192
-617177
-617159
-617146
-617144
-617159
-617176
-617187
-617191
-617191
-617190
-617177
-617146
-617135
-617162
-617185
-617203
-617214
-617219
-617221
-617223
-617228
-617234
-617242
-617251
-617258
-617263
-617266
-617267
-617268
-617269
-617269
-617270
-617271
-617273
-617274
-617274
-617275
-617276
-617276
-617277
-617277
-617278
-617279
-617279
-617279
-617279
-617279
-617279
-617278
-617278
-617279
-617280
-617283
-617285
-617283
-617281
-621065
-621036
-620997
-620960
-620936
-620930
-620951
-620975
-620979
-620968
-620951
-620934
-620917
-620905
-620910
-620936
-620969
-620997
-621016
-621021
-621011
-620998
-620995
-620984
-620966
-620992
-621082
-621193
-621290
-621362
-621414
-621446
-621459
-621462
-621464
-621477
-621505
-621545
-621593
-621645
-621690
-621723
-621753
-621790
-621832
-621877
-621920
-621959
-621998
-622048
-622114
-622178
-622222
-622244
-622265
-622293
-622324
-622353
-622380
-622403
-622423
-622438
-622446
-622452
-622459
-622459
-622446
-622422
-622397
-622380
-622376
-622384
-622382
-622363
-622344
-622331
-622313
-622290
-622267
-622247
-622229
-622212
-622199
-622186
-622178
-622179
-622178
-622174
-622168
-622163
-622160
-622160
-622162
-622164
-622165
-622165
-622168
-622174
-622185
-622198
-622209
-622220
-622232
-622246
-622268
-622298
-622333
-622362
-622381
-622392
-622399
-622401
-622403
-622411
-622423
-622439
-622462
-622496
-622532
-622562
-622583
-622599
-622614
-622630
-622643
-622647
-622644
-622640
-622636
-622638
-622641
-622642
-622641
-622638
-622635
-622636
-622643
-622651
-622657
-622660
-622662
-622656
-622634
-622616
-622603
-622587
-622571
-622560
-622568
-622595
-622613
-622618
-622617
-622614
-622604
-622586
-622585
-622602
-622617
-622631
-622642
-622649
-622652
-622654
-622658
-622664
-622670
-622677
-622683
-622688
-622691
-622693
-622695
-622695
-622696
-622697
-622698
-622699
-622700
-622701
-622701
-622702
-622702
-622703
-622703
-622704
-622705
-622705
-622705
-622705
-622705
-622704
-622703
-622702
-622701
-622699
-622699
-622699
-622698
-622697
-626558
-626517
-626457
-626399
-626361
-626358
-626391
-626419
-626425
-626416
-626403
-626387
-626371
-626363
-626370
-626388
-626412
-626434
-626443
-626433
-626420
-626425
-626419
-626387
-626377
-626439
-626559
-626671
-626746
-626790
-626819
-626838
-626859
-626882
-626901
-626922
-626952
-626990
-627034
-627083
-627133
-627180
-627228
-627277
-627324
-627366
-627401
-627430
-627458
-627499
-627565
-627641
-627695
-627720
-627736
-627758
-627785
-627810
-627833
-627856
-627882
-627912
-627940
-627959
-627966
-627954
-627925
-627889
-627857
-627837
-627830
-627830
-627824
-627814
-627796
-627783
-627769
-627754
-627735
-627714
-627694
-627677
-627664
-627651
-627640
-627641
-627638
-627634
-627629
-627625
-627623
-627625
-627629
-627632
-627633
-627633
-627638
-627643
-627652
-627663
-627674
-627686
-627697
-627711
-627734
-627764
-627796
-627821
-627838
-627849
-627860
-627863
-627865
-627873
-627891
-627918
-627951
-627986
-628013
-628032
-628047
-628061
-628077
-628091
-628100
-628101
-628099
-628098
-628100
-628110
-628118
-628119
-628115
-628109
-628103
-628102
-628106
-628112
-628118
-628123
-628126
-628125
-628106
-628089
-628080
-628066
-628050
-628032
-628021
-628037
-628063
-628076
-628079
-628077
-628072
-628067
-628071
-628081
-628090
-628099
-628108
-628115
-628119
-628122
-628124
-628128
-628132
-628138
-628144
-628149
-628153
-628155
-628157
-628158
-628160
-628162
-628163
-628164
-628164
-628164
-628164
-628165
-628165
-628166
-628167
-628167
-628167
-628167
-628167
-628167
-628167
-628165
-628163
-628161
-628160
-628158
-628157
-628155
-628154
-628154
-632040
-632014
-631970
-631922
-631884
-631878
-631895
-631908
-631911
-631906
-631895
-631876
-631855
-631851
-631862
-631879
-631896
-631911
-631925
-631914
-631892
-631902
-631907
-631890
-631904
-631979
-632083
-632168
-632218
-632239
-632243
-632250
-632275
-632314
-632359
-632397
-632431
-632469
-632515
-632569
-632630
-632695
-632760
-632815
-632853
-632878
-632901
-632924
-632956
-633011
-633102
-633193
-633249
-633270
-633276
-633284
-633295
-633310
-633327
-633353
-633392
-633443
-633487
-633510
-633506
-633479
-633439
-633394
-633357
-633330
-633308
-633288
-633280
-633280
-633279
-633263
-633247
-633235
-633223
-633207
-633190
-633174
-633161
-633149
-633140
-633135
-633131
-633127
-633124
-633123
-633124
-633127
-633131
-633134
-633135
-633138
-633143
-633147
-633153
-633162
-633172
-633184
-633197
-633214
-633240
-633271
-633300
-633321
-633335
-633347
-633362
-633363
-633361
-633369
-633389
-633421
-633457
-633490
-633514
-633530
-633542
-633555
-633568
-633580
-633588
-633590
-633594
-633604
-633620
-633639
-633646
-633643
-633636
-633627
-633617
-633610
-633608
-633610
-633613
-633618
-633620
-633625
-633620
-633607
-633598
-633587
-633576
-633562
-633544
-633541
-633561
-633578
-633582
-633581
-633579
-633579
-633581
-633587
-633593
-633600
-633608
-633616
-633621
-633625
-633626
-633627
-633631
-633637
-633643
-633649
-633653
-633655
-633657
-633659
-633661
-633663
-633665
-633666
-633666
-633665
-633665
-633664
-633665
-633665
-633665
-633665
-633665
-633666
-633666
-633665
-633663
-633661
-633658
-633656
-633654
-633653
-633653
-633653
-633653
-633653
-637485
-637484
-637477
-637467
-637454
-637445
-637443
-637443
-637443
-637445
-637447
-637444
-637426
-637413
-637410
-637416
-637425
-637437
-637457
-637456
-637431
-637427
-637440
-637461
-637502
-637570
-637647
-637706
-637734
-637738
-637725
-637723
-637746
-637791
-637853
-637905
-637945
-637991
-638049
-638120
-638197
-638271
-638332
-638375
-638403
-638423
-638446
-638482
-638541
-638631
-638732
-638803
-638835
-638844
-638844
-638845
-638850
-638864
-638887
-638924
-638974
-639023
-639055
-639069
-639064
-639039
-638999
-638947
-638894
-638852
-638811
-638773
-638761
-638769
-638790
-638781
-638761
-638746
-638736
-638726
-638712
-638697
-638686
-638679
-638673
-638666
-638661
-638659
-638659
-638661
-638663
-638666
-638670
-638673
-638674
-638675
-638680
-638684
-638689
-638696
-638705
-638716
-638730
-638751
-638782
-638816
-638843
-638862
-638873
-638884
-638896
-638895
-638892
-638900
-638918
-638946
-638978
-639011
-639039
-639059
-639075
-639089
-639100
-639107
-639113
-639120
-639134
-639156
-639180
-639195
-639196
-639189
-639186
-639181
-639173
-639163
-639156
-639153
-639151
-639151
-639149
-639149
-639158
-639157
-639147
-639137
-639131
-639128
-639117
-639113
-639120
-639126
-639124
-639121
-639119
-639120
-639122
-639125
-639130
-639138
-639147
-639155
-639159
-639162
-639163
-639164
-639167
-639174
-639182
-639188
-639193
-639195
-639196
-639197
-639199
-639201
-639202
-639203
-639203
-639202
-639201
-639200
-639199
-639199
-639198
-639198
-639198
-639197
-639197
-639195
-639193
-639192
-639190
-639189
-639187
-639185
-639184
-639188
-639189
-639189
-642916
-642925
-642945
-642976
-643012
-643020
-643016
-643011
-643010
-643015
-643029
-643041
-643036
-643021
-643008
-643002
-643001
-643003
-643006
-643008
-643008
-643010
-643027
-643061
-643114
-643185
-643253
-643296
-643310
-643303
-643284
-643276
-643294
-643337
-643403
-643466
-643532
-643612
-643692
-643761
-643826
-643886
-643935
-643972
-644005
-644037
-644076
-644136
-644220
-644308
-644373
-644408
-644423
-644428
-644431
-644439
-644457
-644485
-644521
-644559
-644592
-644613
-644624
-644628