/*--------------------------------*- C++ -*----------------------------------*\
  =========                 |
  \\      /  F ield         | OpenFOAM: The Open Source CFD Toolbox
   \\    /   O peration     | Website:  https://openfoam.org
    \\  /    A nd           | Version:  8
     \\/     M anipulation  |
\*---------------------------------------------------------------------------*/
FoamFile
{
    version     2.0;
    format      ascii;
    class       volScalarField;
    location    "800";
    object      p_rgh;
}
// * * * * * * * * * * * * * * * * * * * * * * * * * * * * * * * * * * * * * //

dimensions      [1 -1 -2 0 0 0 0];

internalField   nonuniform List<scalar> 
20000
(
-545997
-545998
-545999
-545999
-545998
-545998
-545997
-545994
-545983
-545968
-545954
-545947
-545946
-545961
-545971
-545951
-545919
-545931
-545955
-545966
-545970
-545979
-545995
-546017
-546040
-546057
-546069
-546077
-546083
-546089
-546098
-546112
-546135
-546175
-546242
-546337
-546445
-546541
-546612
-546662
-546698
-546728
-546758
-546792
-546833
-546875
-546910
-546932
-546947
-546958
-546970
-546987
-547010
-547036
-547057
-547070
-547082
-547088
-547092
-547107
-547149
-547204
-547236
-547244
-547245
-547245
-547246
-547247
-547247
-547246
-547244
-547239
-547232
-547223
-547211
-547196
-547181
-547168
-547160
-547156
-547153
-547140
-547147
-547139
-547153
-547153
-547150
-547144
-547136
-547127
-547121
-547118
-547116
-547114
-547112
-547112
-547113
-547115
-547117
-547120
-547123
-547129
-547141
-547160
-547183
-547205
-547223
-547235
-547243
-547252
-547261
-547271
-547292
-547324
-547362
-547392
-547413
-547427
-547439
-547453
-547473
-547498
-547523
-547541
-547552
-547558
-547562
-547567
-547574
-547582
-547589
-547592
-547593
-547593
-547592
-547590
-547588
-547585
-547583
-547580
-547573
-547563
-547552
-547544
-547539
-547537
-547535
-547533
-547531
-547527
-547521
-547513
-547507
-547502
-547499
-547497
-547496
-547497
-547498
-547499
-547500
-547503
-547507
-547513
-547520
-547527
-547537
-547551
-547565
-547576
-547584
-547593
-547603
-547616
-547629
-547637
-547641
-547643
-547643
-547643
-547643
-547645
-547648
-547650
-547650
-547640
-547648
-547647
-547647
-547647
-547647
-547647
-547648
-547648
-547648
-547647
-547647
-547647
-547647
-547647
-545960
-545963
-545966
-545966
-545964
-545962
-545963
-545962
-545955
-545938
-545921
-545908
-545889
-545928
-545971
-545924
-545844
-545879
-545942
-545945
-545938
-545944
-545958
-545978
-546000
-546018
-546031
-546039
-546046
-546053
-546063
-546079
-546106
-546148
-546212
-546299
-546402
-546501
-546578
-546631
-546668
-546697
-546722
-546749
-546783
-546823
-546860
-546889
-546908
-546923
-546938
-546957
-546979
-547000
-547018
-547031
-547051
-547060
-547057
-547072
-547112
-547165
-547197
-547205
-547207
-547207
-547209
-547211
-547211
-547213
-547212
-547203
-547195
-547186
-547173
-547158
-547143
-547131
-547123
-547120
-547123
-547112
-547160
-547110
-547127
-547118
-547112
-547106
-547098
-547089
-547083
-547080
-547078
-547076
-547075
-547074
-547075
-547076
-547077
-547082
-547087
-547093
-547104
-547120
-547140
-547161
-547180
-547196
-547209
-547219
-547228
-547235
-547253
-547283
-547318
-547350
-547374
-547392
-547407
-547422
-547442
-547467
-547491
-547508
-547518
-547523
-547526
-547531
-547538
-547546
-547552
-547555
-547556
-547556
-547556
-547555
-547552
-547548
-547545
-547540
-547534
-547525
-547514
-547506
-547502
-547498
-547495
-547494
-547492
-547489
-547484
-547477
-547472
-547467
-547463
-547456
-547454
-547456
-547460
-547462
-547463
-547467
-547472
-547478
-547483
-547490
-547499
-547512
-547525
-547536
-547545
-547554
-547565
-547579
-547591
-547599
-547603
-547607
-547606
-547603
-547604
-547606
-547613
-547616
-547621
-547599
-547615
-547610
-547610
-547610
-547610
-547610
-547610
-547610
-547610
-547610
-547610
-547609
-547609
-547609
-545889
-545896
-545899
-545901
-545895
-545897
-545897
-545898
-545893
-545878
-545859
-545839
-545729
-545816
-545946
-545886
-545790
-545821
-545896
-545894
-545879
-545877
-545885
-545901
-545921
-545939
-545954
-545964
-545973
-545983
-545997
-546018
-546046
-546087
-546147
-546230
-546332
-546434
-546512
-546565
-546602
-546634
-546659
-546680
-546703
-546732
-546767
-546801
-546830
-546852
-546871
-546889
-546905
-546921
-546937
-546954
-546984
-547001
-546994
-547003
-547038
-547087
-547122
-547136
-547139
-547138
-547136
-547133
-547133
-547142
-547147
-547135
-547124
-547113
-547100
-547085
-547071
-547059
-547049
-547044
-547039
-547027
-547129
-547025
-547040
-547038
-547034
-547029
-547021
-547013
-547007
-547003
-547001
-547000
-546999
-547000
-547000
-547000
-547000
-547007
-547014
-547021
-547030
-547041
-547057
-547079
-547104
-547129
-547146
-547155
-547157
-547147
-547174
-547212
-547245
-547277
-547305
-547327
-547343
-547357
-547374
-547398
-547422
-547439
-547448
-547451
-547453
-547457
-547463
-547471
-547477
-547481
-547482
-547483
-547484
-547481
-547477
-547473
-547468
-547464
-547459
-547451
-547441
-547433
-547428
-547424
-547419
-547417
-547415
-547412
-547409
-547404
-547398
-547392
-547384
-547372
-547371
-547375
-547380
-547384
-547388
-547393
-547398
-547403
-547409
-547416
-547425
-547437
-547449
-547460
-547469
-547478
-547489
-547503
-547516
-547523
-547528
-547534
-547533
-547528
-547527
-547530
-547542
-547541
-547534
-547526
-547533
-547534
-547535
-547535
-547535
-547535
-547535
-547535
-547535
-547534
-547534
-547534
-547534
-547534
-545796
-545805
-545809
-545796
-545797
-545805
-545821
-545816
-545802
-545793
-545786
-545722
-545565
-545835
-545935
-545896
-545764
-545730
-545803
-545822
-545801
-545783
-545781
-545789
-545804
-545821
-545839
-545858
-545877
-545897
-545919
-545942
-545964
-545997
-546058
-546153
-546266
-546362
-546423
-546460
-546492
-546528
-546561
-546581
-546597
-546619
-546652
-546690
-546723
-546748
-546765
-546780
-546792
-546806
-546821
-546841
-546870
-546900
-546898
-546906
-546937
-546983
-547019
-547036
-547042
-547040
-547034
-547027
-547024
-547031
-547040
-547029
-547017
-547006
-546992
-546979
-546967
-546953
-546941
-546931
-546923
-546910
-546956
-546912
-546923
-546922
-546918
-546914
-546908
-546901
-546895
-546890
-546887
-546886
-546886
-546887
-546887
-546887
-546888
-546895
-546905
-546914
-546923
-546932
-546948
-546977
-547018
-547054
-547068
-547067
-547049
-546932
-547026
-547127
-547150
-547171
-547197
-547220
-547240
-547255
-547268
-547289
-547312
-547330
-547341
-547342
-547342
-547346
-547352
-547360
-547367
-547370
-547372
-547375
-547374
-547370
-547365
-547360
-547355
-547350
-547346
-547339
-547330
-547322
-547317
-547313
-547309
-547306
-547302
-547300
-547298
-547293
-547286
-547278
-547267
-547250
-547246
-547246
-547258
-547267
-547274
-547280
-547287
-547292
-547298
-547305
-547314
-547325
-547337
-547348
-547358
-547369
-547382
-547396
-547405
-547411
-547418
-547423
-547420
-547417
-547417
-547419
-547426
-547425
-547419
-547413
-547418
-547421
-547422
-547422
-547422
-547422
-547422
-547422
-547422
-547422
-547421
-547420
-547420
-547421
-545646
-545648
-545644
-545641
-545655
-545681
-545745
-545818
-545858
-545796
-545667
-545544
-545438
-545706
-545688
-545578
-545575
-545610
-545676
-545744
-545720
-545653
-545628
-545630
-545640
-545659
-545685
-545717
-545753
-545788
-545818
-545838
-545853
-545880
-545951
-546065
-546181
-546258
-546296
-546304
-546320
-546375
-546425
-546450
-546469
-546491
-546520
-546551
-546576
-546598
-546620
-546641
-546655
-546662
-546673
-546688
-546714
-546739
-546748
-546767
-546805
-546853
-546887
-546906
-546922
-546918
-546905
-546899
-546899
-546898
-546891
-546880
-546873
-546866
-546855
-546841
-546827
-546812
-546797
-546784
-546774
-546765
-546768
-546766
-546770
-546769
-546765
-546761
-546758
-546753
-546747
-546740
-546736
-546734
-546734
-546735
-546735
-546735
-546737
-546746
-546760
-546774
-546789
-546803
-546827
-546868
-546918
-546952
-546963
-546961
-546890
-546496
-546629
-546970
-547031
-547030
-547046
-547069
-547094
-547118
-547132
-547149
-547169
-547191
-547205
-547200
-547197
-547200
-547206
-547213
-547220
-547225
-547230
-547236
-547225
-547223
-547218
-547212
-547206
-547198
-547193
-547187
-547180
-547174
-547169
-547165
-547161
-547158
-547154
-547151
-547148
-547142
-547135
-547128
-547115
-547088
-547079
-547048
-547094
-547114
-547124
-547132
-547139
-547147
-547155
-547165
-547176
-547189
-547201
-547212
-547222
-547231
-547242
-547251
-547256
-547261
-547270
-547274
-547270
-547269
-547270
-547270
-547271
-547273
-547272
-547267
-547264
-547269
-547273
-547273
-547273
-547273
-547273
-547273
-547273
-547272
-547271
-547269
-547269
-547271
-545461
-545439
-545429
-545434
-545446
-545493
-545625
-545773
-545829
-545800
-545739
-545588
-545256
-545372
-545382
-545379
-545402
-545439
-545521
-545661
-545650
-545488
-545406
-545417
-545438
-545467
-545501
-545542
-545587
-545628
-545657
-545680
-545694
-545722
-545798
-545919
-546031
-546102
-546133
-546045
-546052
-546183
-546285
-546289
-546311
-546340
-546366
-546374
-546387
-546409
-546428
-546448
-546463
-546472
-546488
-546506
-546523
-546538
-546556
-546584
-546631
-546679
-546710
-546745
-546783
-546780
-546750
-546735
-546726
-546716
-546703
-546693
-546690
-546688
-546683
-546670
-546653
-546636
-546618
-546603
-546590
-546582
-546579
-546580
-546580
-546578
-546574
-546571
-546571
-546570
-546565
-546556
-546548
-546545
-546544
-546545
-546544
-546542
-546546
-546557
-546574
-546597
-546620
-546645
-546675
-546715
-546756
-546786
-546815
-546806
-546480
-546300
-546389
-546872
-546879
-546847
-546860
-546882
-546906
-546932
-546955
-546976
-547004
-547034
-547050
-547033
-547017
-547016
-547022
-547029
-547036
-547041
-547055
-547072
-547011
-547039
-547035
-547026
-547017
-547008
-547000
-546995
-546991
-546988
-546983
-546978
-546974
-546971
-546968
-546964
-546960
-546955
-546950
-546946
-546934
-546886
-546866
-546587
-546886
-546935
-546942
-546950
-546961
-546977
-546991
-547003
-547014
-547024
-547033
-547041
-547047
-547053
-547060
-547066
-547071
-547075
-547083
-547086
-547084
-547083
-547083
-547084
-547084
-547085
-547087
-547085
-547075
-547079
-547086
-547087
-547087
-547087
-547087
-547087
-547087
-547086
-547086
-547075
-547080
-547086
-545268
-545226
-545208
-545205
-545212
-545232
-545246
-545265
-545278
-545343
-545482
-545422
-545138
-545108
-545155
-545173
-545198
-545232
-545310
-545484
-545521
-545363
-545220
-545227
-545246
-545266
-545294
-545331
-545373
-545407
-545436
-545471
-545492
-545519
-545588
-545703
-545821
-545907
-545926
-545665
-545796
-546005
-546185
-546128
-546115
-546171
-546220
-546191
-546170
-546188
-546210
-546229
-546246
-546267
-546294
-546320
-546338
-546351
-546369
-546399
-546438
-546470
-546489
-546520
-546563
-546548
-546512
-546500
-546505
-546505
-546497
-546487
-546481
-546477
-546472
-546458
-546444
-546423
-546404
-546386
-546372
-546364
-546362
-546359
-546356
-546351
-546345
-546339
-546338
-546342
-546345
-546337
-546326
-546319
-546318
-546319
-546318
-546314
-546320
-546329
-546346
-546370
-546400
-546429
-546459
-546494
-546532
-546566
-546622
-546649
-546246
-546240
-546326
-546843
-546669
-546621
-546630
-546650
-546672
-546695
-546724
-546756
-546791
-546833
-546882
-546860
-546807
-546792
-546799
-546808
-546814
-546814
-546849
-546844
-546653
-546802
-546810
-546802
-546791
-546778
-546767
-546763
-546766
-546765
-546760
-546755
-546749
-546745
-546742
-546739
-546737
-546735
-546733
-546739
-546734
-546564
-546537
-545913
-546612
-546741
-546732
-546738
-546755
-546774
-546786
-546793
-546799
-546807
-546814
-546821
-546826
-546831
-546837
-546843
-546849
-546852
-546857
-546862
-546863
-546862
-546861
-546860
-546861
-546862
-546864
-546863
-546854
-546851
-546861
-546865
-546865
-546865
-546865
-546865
-546865
-546865
-546870
-546814
-546845
-546869
-545129
-545005
-544982
-544978
-544989
-544977
-544955
-544920
-544899
-544924
-545040
-545122
-544989
-544922
-544925
-544927
-544943
-544979
-545079
-545235
-545234
-545054
-545000
-545005
-545019
-545033
-545048
-545072
-545107
-545138
-545161
-545196
-545227
-545265
-545340
-545456
-545572
-545671
-545743
-545388
-545821
-546030
-546011
-545836
-545819
-545914
-546081
-546057
-545955
-545941
-545965
-545999
-546035
-546074
-546112
-546140
-546159
-546175
-546196
-546220
-546240
-546254
-546265
-546274
-546273
-546254
-546243
-546247
-546260
-546273
-546271
-546255
-546238
-546225
-546206
-546198
-546190
-546199
-546172
-546154
-546136
-546128
-546117
-546103
-546093
-546086
-546078
-546071
-546065
-546066
-546074
-546078
-546069
-546062
-546058
-546062
-546066
-546064
-546065
-546068
-546080
-546101
-546129
-546160
-546192
-546227
-546266
-546301
-546350
-546623
-546036
-546163
-546504
-546665
-546347
-546351
-546358
-546375
-546395
-546420
-546450
-546481
-546511
-546552
-546619
-546659
-546608
-546546
-546540
-546547
-546550
-546543
-546620
-546756
-546465
-546535
-546544
-546536
-546525
-546510
-546493
-546492
-546501
-546503
-546499
-546492
-546486
-546481
-546479
-546478
-546478
-546481
-546485
-546500
-546543
-546005
-546372
-545681
-546450
-546537
-546505
-546503
-546512
-546523
-546530
-546535
-546542
-546549
-546557
-546565
-546570
-546575
-546580
-546586
-546591
-546594
-546599
-546604
-546606
-546604
-546601
-546600
-546601
-546602
-546604
-546605
-546601
-546589
-546594
-546610
-546606
-546605
-546605
-546605
-546608
-546611
-546623
-546544
-546561
-546621
-544945
-544742
-544697
-544681
-544693
-544698
-544713
-544665
-544659
-544684
-544771
-544903
-544866
-544755
-544666
-544634
-544624
-544694
-544793
-545001
-544942
-544800
-544751
-544748
-544764
-544772
-544770
-544778
-544800
-544822
-544851
-544896
-544931
-544978
-545064
-545179
-545284
-545376
-545454
-545157
-545821
-545976
-545598
-545423
-545456
-545560
-545843
-545942
-545859
-545740
-545711
-545742
-545797
-545850
-545893
-545920
-545938
-545952
-545963
-545976
-545990
-546016
-546029
-546024
-546004
-545985
-545978
-545980
-545990
-545998
-545986
-545969
-545952
-545934
-545920
-545911
-545917
-545911
-545889
-545868
-545859
-545859
-545856
-545819
-545804
-545786
-545775
-545764
-545756
-545754
-545766
-545784
-545784
-545772
-545765
-545766
-545768
-545770
-545773
-545775
-545779
-545791
-545817
-545853
-545892
-545931
-545970
-546001
-546026
-546227
-545725
-546434
-546460
-546132
-545990
-546039
-546052
-546065
-546082
-546105
-546136
-546170
-546195
-546210
-546264
-546385
-546384
-546291
-546252
-546250
-546252
-546244
-546321
-546475
-546253
-546251
-546251
-546240
-546229
-546200
-546154
-546157
-546199
-546205
-546202
-546195
-546187
-546177
-546165
-546166
-546178
-546192
-546200
-546216
-546277
-545604
-546176
-545624
-546079
-546304
-546242
-546230
-546231
-546235
-546241
-546245
-546251
-546259
-546268
-546275
-546281
-546285
-546289
-546293
-546296
-546301
-546307
-546314
-546313
-546308
-546304
-546303
-546304
-546305
-546307
-546309
-546308
-546295
-546286
-546324
-546309
-546307
-546306
-546307
-546311
-546315
-546312
-546264
-546254
-546339
-544615
-544374
-544336
-544338
-544359
-544409
-544439
-544399
-544375
-544380
-544449
-544606
-544783
-544695
-544466
-544261
-544146
-544164
-544382
-544689
-544768
-544652
-544472
-544395
-544491
-544504
-544464
-544412
-544422
-544460
-544527
-544585
-544618
-544663
-544748
-544857
-544947
-545025
-545074
-544737
-545239
-545568
-545178
-545103
-545119
-545204
-545570
-545821
-545740
-545578
-545502
-545494
-545523
-545567
-545607
-545633
-545649
-545656
-545661
-545665
-545677
-545699
-545718
-545724
-545715
-545702
-545691
-545683
-545677
-545666
-545656
-545643
-545639
-545638
-545614
-545585
-545566
-545553
-545530
-545499
-545486
-545514
-545535
-545586
-545564
-545530
-545452
-545432
-545424
-545419
-545426
-545445
-545455
-545447
-545433
-545427
-545427
-545428
-545437
-545449
-545459
-545462
-545478
-545513
-545557
-545603
-545643
-545668
-545671
-545630
-545348
-546149
-546422
-545845
-545667
-545703
-545716
-545724
-545742
-545767
-545796
-545830
-545860
-545879
-545906
-546023
-546113
-546012
-545934
-545917
-545916
-545921
-545969
-546010
-545949
-545941
-545933
-545928
-545925
-545869
-545721
-545683
-545849
-545872
-545871
-545863
-545854
-545843
-545824
-545810
-545817
-545863
-545878
-545894
-545846
-545349
-546017
-545653
-546056
-545964
-545913
-545906
-545909
-545913
-545917
-545921
-545927
-545935
-545942
-545948
-545950
-545952
-545954
-545957
-545966
-545977
-545982
-545982
-545977
-545973
-545970
-545969
-545970
-545971
-545972
-545973
-545974
-545968
-545957
-545988
-545976
-545974
-545973
-545973
-545977
-545980
-545968
-545898
-545932
-546003
-544164
-544016
-543986
-544008
-544036
-544110
-544111
-544035
-543944
-543930
-543952
-544110
-544537
-544676
-544226
-543671
-543358
-543511
-543836
-544205
-544441
-544470
-544472
-544228
-544270
-544256
-543895
-543688
-543792
-544019
-544214
-544279
-544299
-544330
-544391
-544476
-544554
-544622
-544649
-544422
-544596
-544904
-544798
-544779
-544780
-544846
-545195
-545518
-545428
-545286
-545232
-545239
-545262
-545301
-545333
-545365
-545376
-545354
-545328
-545317
-545329
-545347
-545376
-545395
-545395
-545379
-545367
-545359
-545353
-545331
-545300
-545278
-545270
-545265
-545244
-545215
-545193
-545184
-545162
-545124
-545106
-545102
-545109
-545135
-545199
-545180
-545124
-545091
-545068
-545054
-545059
-545075
-545093
-545087
-545072
-545060
-545055
-545055
-545061
-545089
-545101
-545099
-545110
-545144
-545192
-545240
-545273
-545288
-545272
-545166
-545029
-545527
-546092
-545426
-545310
-545343
-545351
-545356
-545377
-545408
-545444
-545477
-545503
-545522
-545552
-545646
-545774
-545692
-545588
-545558
-545552
-545564
-545594
-545632
-545617
-545604
-545587
-545582
-545588
-545553
-545277
-545192
-545503
-545516
-545506
-545496
-545486
-545481
-545473
-545436
-545354
-545450
-545507
-545528
-544954
-545187
-545761
-545676
-545909
-545519
-545530
-545539
-545547
-545555
-545559
-545561
-545564
-545570
-545576
-545580
-545581
-545581
-545582
-545586
-545599
-545611
-545610
-545605
-545603
-545602
-545601
-545600
-545599
-545600
-545601
-545602
-545602
-545600
-545600
-545606
-545605
-545605
-545605
-545605
-545606
-545608
-545589
-545454
-545566
-545639
-543698
-543626
-543655
-543718
-543777
-543840
-543797
-543568
-543465
-543433
-543463
-543620
-544113
-544580
-544340
-543785
-543016
-543160
-543470
-543652
-543804
-544090
-544011
-544148
-544250
-543780
-543356
-543137
-543366
-543750
-543972
-544022
-543991
-543969
-543984
-544033
-544101
-544156
-544171
-544070
-544152
-544392
-544437
-544406
-544396
-544423
-544586
-544844
-544831
-544788
-544798
-544835
-544885
-544995
-545119
-545143
-545097
-545029
-544978
-544961
-544962
-544991
-545030
-545073
-545076
-545057
-545033
-545015
-544986
-544954
-544926
-544904
-544893
-544882
-544857
-544816
-544789
-544779
-544774
-544741
-544713
-544696
-544683
-544675
-544695
-544703
-544679
-544664
-544661
-544660
-544657
-544667
-544677
-544692
-544688
-544673
-544650
-544658
-544683
-544698
-544696
-544695
-544710
-544743
-544785
-544815
-544830
-544844
-544854
-544799
-544770
-545012
-545276
-544977
-544913
-544949
-544958
-544959
-544984
-545026
-545069
-545099
-545120
-545141
-545176
-545243
-545349
-545326
-545240
-545176
-545162
-545164
-545194
-545239
-545279
-545271
-545189
-545139
-545143
-545125
-544829
-544788
-545113
-545104
-545097
-545087
-545076
-545070
-545062
-545016
-544828
-544912
-545011
-545013
-544812
-545567
-545767
-545301
-545140
-545070
-545100
-545131
-545178
-545191
-545173
-545160
-545160
-545166
-545174
-545180
-545185
-545186
-545186
-545186
-545194
-545200
-545197
-545195
-545196
-545198
-545196
-545194
-545194
-545194
-545194
-545193
-545192
-545192
-545194
-545197
-545197
-545198
-545198
-545199
-545201
-545204
-545194
-545083
-545207
-545224
-543161
-543207
-543350
-543541
-543845
-543802
-543327
-542870
-542759
-542816
-542953
-543234
-543724
-544213
-544051
-543415
-542830
-542988
-543169
-543215
-543227
-543292
-543028
-543496
-544207
-544020
-543625
-543031
-543187
-543517
-543729
-543788
-543689
-543571
-543532
-543548
-543598
-543650
-543667
-543646
-543750
-543996
-544083
-544031
-544008
-544032
-544087
-544169
-544193
-544208
-544253
-544300
-544359
-544578
-544834
-544782
-544659
-544597
-544568
-544557
-544570
-544617
-544719
-544795
-544781
-544689
-544601
-544553
-544531
-544525
-544524
-544528
-544536
-544501
-544447
-544394
-544354
-544333
-544317
-544291
-544272
-544257
-544242
-544233
-544233
-544232
-544224
-544221
-544219
-544216
-544215
-544215
-544224
-544238
-544255
-544256
-544245
-544266
-544270
-544265
-544261
-544260
-544276
-544296
-544319
-544343
-544373
-544400
-544418
-544418
-544410
-544466
-544529
-544491
-544479
-544514
-544521
-544529
-544562
-544610
-544656
-544688
-544707
-544722
-544734
-544764
-544842
-544906
-544873
-544798
-544761
-544751
-544772
-544835
-544918
-544936
-544763
-544619
-544589
-544596
-544452
-544456
-544597
-544603
-544634
-544631
-544619
-544600
-544557
-544482
-544354
-544461
-544586
-544568
-544828
-545450
-545584
-544808
-544624
-544647
-544669
-544698
-544729
-544719
-544707
-544709
-544716
-544726
-544737
-544748
-544755
-544757
-544756
-544753
-544752
-544751
-544748
-544748
-544751
-544755
-544754
-544752
-544752
-544751
-544748
-544742
-544740
-544745
-544750
-544753
-544753
-544754
-544754
-544756
-544757
-544757
-544750
-544730
-544752
-544759
-542712
-542799
-543055
-543657
-543973
-543782
-542925
-542283
-542220
-542348
-542539
-542783
-543090
-543326
-542980
-542533
-542537
-542694
-542866
-542911
-542947
-542933
-542871
-543460
-544074
-543877
-543094
-542713
-542946
-543227
-543461
-543562
-543427
-543142
-543033
-543048
-543081
-543126
-543177
-543220
-543334
-543541
-543641
-543617
-543595
-543596
-543614
-543635
-543646
-543664
-543705
-543767
-543883
-544178
-544439
-544371
-544217
-544140
-544124
-544123
-544144
-544191
-544279
-544349
-544305
-544183
-544094
-544053
-544029
-544025
-544035
-544118
-544222
-544065
-543958
-543934
-543895
-543864
-543837
-543816
-543799
-543783
-543770
-543763
-543759
-543759
-543753
-543745
-543739
-543736
-543735
-543735
-543738
-543744
-543756
-543741
-543668
-543747
-543802
-543802
-543780
-543769
-543771
-543795
-543834
-543867
-543900
-543933
-543951
-543957
-543960
-543971
-543984
-543990
-544002
-544032
-544051
-544068
-544103
-544145
-544184
-544220
-544252
-544270
-544274
-544289
-544349
-544453
-544452
-544365
-544297
-544277
-544279
-544323
-544405
-544456
-544363
-544208
-544122
-544131
-544116
-544098
-544037
-544019
-544092
-544106
-544089
-544042
-543961
-543923
-543941
-544076
-544154
-544149
-544120
-544322
-544421
-544163
-544177
-544197
-544209
-544214
-544216
-544207
-544216
-544231
-544241
-544254
-544271
-544289
-544297
-544292
-544284
-544278
-544275
-544272
-544270
-544270
-544273
-544277
-544274
-544270
-544273
-544270
-544266
-544261
-544261
-544266
-544272
-544273
-544274
-544273
-544274
-544274
-544273
-544270
-544262
-544253
-544263
-544268
-542250
-542351
-542701
-543334
-543712
-543457
-542331
-541783
-541928
-542054
-542194
-542409
-542583
-542531
-542216
-542030
-542071
-542263
-542709
-543063
-543061
-542663
-542904
-543564
-543834
-543228
-542339
-542387
-542645
-542912
-543261
-543583
-543301
-542792
-542600
-542599
-542657
-542706
-542738
-542793
-542888
-543019
-543088
-543084
-543074
-543088
-543127
-543171
-543196
-543201
-543225
-543271
-543373
-543622
-543845
-543828
-543752
-543712
-543737
-543757
-543752
-543737
-543754
-543778
-543740
-543648
-543580
-543527
-543501
-543478
-543456
-543639
-543940
-543495
-543451
-543448
-543424
-543377
-543346
-543317
-543295
-543279
-543272
-543266
-543232
-543267
-543261
-543253
-543246
-543242
-543232
-543229
-543228
-543233
-543233
-543182
-543080
-543205
-543276
-543273
-543210
-543170
-543203
-543270
-543357
-543422
-543455
-543478
-543488
-543483
-543472
-543463
-543465
-543473
-543488
-543513
-543547
-543587
-543612
-543641
-543666
-543701
-543748
-543792
-543841
-543877
-543928
-543944
-543889
-543805
-543759
-543741
-543732
-543733
-543752
-543801
-543833
-543812
-543748
-543720
-543724
-543699
-543449
-543392
-543480
-543415
-543373
-543325
-543242
-543375
-543533
-543632
-543664
-543664
-543650
-543654
-543676
-543662
-543672
-543687
-543699
-543706
-543696
-543666
-543675
-543718
-543740
-543757
-543777
-543798
-543805
-543794
-543778
-543769
-543765
-543763
-543762
-543762
-543761
-543762
-543759
-543757
-543760
-543749
-543743
-543745
-543750
-543754
-543756
-543758
-543759
-543760
-543760
-543758
-543755
-543747
-543733
-543730
-543734
-543743
-541956
-542035
-542160
-542275
-542385
-541764
-541210
-541365
-541528
-541670
-541900
-542164
-542231
-541978
-541657
-541527
-541622
-541991
-542534
-542847
-542708
-541635
-541487
-542426
-542399
-541741
-541717
-541931
-542175
-542494
-543133
-543571
-543445
-543035
-542376
-542144
-542216
-542238
-542276
-542348
-542416
-542482
-542518
-542523
-542538
-542578
-542661
-542748
-542752
-542708
-542704
-542751
-542809
-542892
-543028
-543112
-543137
-543204
-543307
-543333
-543292
-543239
-543227
-543234
-543206
-543092
-542956
-542900
-542861
-542819
-542792
-543346
-543515
-543034
-542800
-543078
-543042
-542949
-542858
-542806
-542776
-542794
-542836
-542766
-542562
-542795
-542836
-542807
-542784
-542734
-542703
-542688
-542684
-542678
-542651
-542526
-542471
-542597
-542687
-542691
-542660
-542616
-542666
-542765
-542847
-542912
-542967
-543011
-543009
-542983
-542980
-542921
-542912
-542920
-542938
-542969
-543017
-543062
-543109
-543128
-543149
-543172
-543211
-543307
-543431
-543423
-543352
-543307
-543265
-543243
-543229
-543209
-543192
-543179
-543177
-543194
-543242
-543293
-543305
-543249
-543326
-543224
-542707
-542654
-542889
-542709
-542578
-542349
-542188
-542663
-543030
-543107
-543122
-543122
-543114
-543111
-543112
-543095
-543098
-543116
-543137
-543134
-543112
-543053
-543104
-543200
-543223
-543227
-543236
-543250
-543263
-543255
-543237
-543225
-543219
-543216
-543215
-543215
-543215
-543214
-543213
-543212
-543209
-543202
-543199
-543199
-543200
-543203
-543207
-543211
-543212
-543211
-543209
-543207
-543203
-543197
-543188
-543170
-543178
-543182
-542248
-541519
-540939
-540506
-540224
-540316
-540601
-540849
-540991
-541118
-541379
-541623
-541437
-541068
-540915
-540965
-541168
-541613
-542122
-542306
-541549
-540734
-540694
-540845
-540915
-540977
-541111
-541256
-541389
-541682
-542732
-543400
-543367
-543032
-542059
-541551
-541628
-541668
-541679
-541712
-541785
-541890
-541994
-542057
-542070
-542063
-542063
-542085
-542088
-542109
-542169
-542237
-542294
-542345
-542406
-542453
-542491
-542572
-542662
-542680
-542686
-542692
-542717
-542767
-542733
-542566
-542443
-542367
-542296
-542239
-542679
-543434
-543623
-543265
-542090
-542329
-542560
-542619
-542510
-542352
-542309
-542322
-542398
-542199
-541913
-542289
-542317
-542229
-542180
-542141
-542120
-542108
-542106
-542102
-542063
-541883
-541882
-542046
-542123
-542132
-542118
-542125
-542151
-542180
-542219
-542271
-542340
-542411
-542389
-542360
-542510
-542365
-542321
-542330
-542352
-542383
-542420
-542471
-542528
-542577
-542607
-542629
-542664
-542803
-542986
-542892
-542712
-542686
-542697
-542717
-542696
-542656
-542627
-542607
-542596
-542598
-542617
-542646
-542671
-542671
-542850
-542998
-542219
-541982
-542393
-542285
-542049
-541518
-541125
-541570
-542423
-542547
-542548
-542543
-542539
-542536
-542534
-542532
-542541
-542551
-542560
-542561
-542552
-542499
-542568
-542647
-542647
-542643
-542649
-542660
-542671
-542664
-542646
-542636
-542633
-542633
-542633
-542634
-542634
-542633
-542632
-542630
-542630
-542627
-542619
-542613
-542617
-542624
-542628
-542627
-542625
-542623
-542621
-542619
-542616
-542611
-542599
-542592
-542569
-542597
-543085
-542499
-541384
-540266
-539462
-539727
-540097
-540289
-540396
-540519
-540779
-540902
-540556
-540282
-540256
-540281
-540406
-540867
-541762
-541571
-540097
-539721
-539988
-540171
-540283
-540387
-540495
-540599
-540702
-540923
-541757
-542666
-542626
-542160
-541240
-540987
-541054
-541026
-540983
-541014
-541103
-541247
-541443
-541602
-541605
-541484
-541384
-541368
-541418
-541524
-541645
-541741
-541817
-541859
-541861
-541854
-541853
-541870
-541898
-541929
-541994
-542063
-542176
-542332
-542336
-542091
-541895
-541779
-541702
-541621
-541571
-542427
-543481
-542510
-541474
-541510
-541761
-541959
-541989
-541873
-541775
-541818
-541937
-541794
-541448
-541671
-541645
-541575
-541552
-541529
-541503
-541489
-541488
-541490
-541421
-541156
-541252
-541464
-541525
-541526
-541520
-541524
-541534
-541552
-541581
-541617
-541661
-541721
-541663
-541671
-542062
-541860
-541701
-541712
-541734
-541761
-541794
-541821
-541851
-541882
-541911
-541949
-542030
-542220
-542452
-542275
-542115
-542096
-542138
-542208
-542178
-541998
-541989
-541989
-541987
-541986
-541988
-541991
-542000
-542022
-542248
-542821
-542235
-541526
-541846
-541844
-541768
-541225
-540653
-540830
-541492
-541960
-541917
-541908
-541900
-541905
-541928
-541944
-541946
-541947
-541953
-541957
-541941
-541912
-541975
-542024
-542013
-542010
-542018
-542036
-542056
-542048
-542027
-542017
-542014
-542015
-542016
-542016
-542017
-542016
-542014
-542011
-542009
-542006
-541999
-541989
-541993
-542001
-542003
-542003
-542001
-541999
-541998
-541996
-541992
-541983
-541962
-541960
-541971
-541967
-543031
-542858
-542494
-541401
-539625
-539459
-539613
-539718
-539786
-539972
-540209
-540549
-539911
-539678
-539609
-539609
-539665
-540149
-541425
-541011
-539336
-538759
-539008
-539350
-539599
-539762
-539879
-539967
-540058
-540241
-540721
-541346
-541204
-540700
-540322
-540360
-540448
-540447
-540404
-540417
-540482
-540584
-540791
-541057
-541089
-540885
-540766
-540772
-540849
-540954
-541072
-541201
-541277
-541259
-541215
-541196
-541206
-541230
-541246
-541273
-541301
-541347
-541583