/*--------------------------------*- C++ -*----------------------------------*\
  =========                 |
  \\      /  F ield         | OpenFOAM: The Open Source CFD Toolbox
   \\    /   O peration     | Website:  https://openfoam.org
    \\  /    A nd           | Version:  8
     \\/     M anipulation  |
\*---------------------------------------------------------------------------*/
FoamFile
{
    version     2.0;
    format      ascii;
    class       volScalarField;
    location    "800";
    object      rho;
}
// * * * * * * * * * * * * * * * * * * * * * * * * * * * * * * * * * * * * * //

dimensions      [1 -3 0 0 0 0 0];

internalField   nonuniform List<scalar> 
20000
(
1003.43
1003.44
1003.43
1003.53
1003.69
1003.8
1003.84
1003.84
1003.83
1003.82
1003.8
1003.79
1003.93
1003.34
1002.39
1004.16
1010.21
1008.12
1003.97
1002.86
1003.52
1003.77
1003.81
1003.82
1003.83
1003.81
1003.77
1003.66
1003.59
1003.61
1003.64
1003.63
1003.63
1003.68
1003.76
1003.84
1003.87
1003.86
1003.81
1003.75
1003.71
1003.74
1003.84
1003.95
1004.01
1004.04
1004
1003.92
1003.82
1003.72
1003.66
1003.64
1003.7
1003.84
1004.03
1004.13
1003.25
1003.04
1003.63
1003.81
1003.85
1003.87
1003.9
1003.91
1003.85
1003.77
1003.49
1003.28
1003.45
1003.53
1003.69
1003.86
1003.91
1003.91
1003.89
1003.87
1003.85
1003.85
1003.83
1003.76
1004.32
1008.78
1006.65
1008.8
1003.45
1003.3
1003.56
1003.66
1003.74
1003.78
1003.78
1003.74
1003.71
1003.78
1003.83
1003.85
1003.86
1003.9
1003.98
1003.88
1003.78
1003.81
1003.85
1003.87
1003.91
1003.93
1003.91
1003.86
1003.79
1003.73
1003.74
1003.82
1003.85
1003.87
1003.89
1003.9
1003.87
1003.81
1003.78
1003.8
1003.82
1003.82
1003.82
1003.82
1003.82
1003.83
1003.84
1003.84
1003.85
1003.85
1003.85
1003.85
1003.84
1003.84
1003.82
1003.76
1003.71
1003.78
1003.86
1003.88
1003.87
1003.86
1003.85
1003.85
1003.87
1003.91
1003.94
1003.9
1003.88
1003.86
1003.85
1003.83
1003.79
1003.73
1003.78
1004.17
1004.39
1004.36
1004.13
1003.93
1003.85
1003.82
1003.81
1003.83
1003.83
1003.85
1003.85
1003.85
1003.85
1003.86
1003.85
1003.84
1003.84
1003.84
1003.84
1003.85
1003.84
1003.72
1003.81
1003.99
1003.94
1003.9
1003.77
1003.51
1003.29
1006.34
1003.5
1003.8
1003.85
1003.86
1003.86
1003.86
1003.86
1003.85
1003.85
1003.84
1003.84
1003.85
1003.86
1003.86
1011.03
1010.77
1010.51
1010.59
1010.92
1011.32
1011.47
1011.49
1011.45
1011.42
1011.35
1011.34
1012.99
1010.37
1006.85
1011.9
1021.59
1017.13
1008.84
1008.97
1010.71
1011.28
1011.45
1011.5
1011.55
1011.54
1011.5
1011.36
1011.21
1011.18
1011.08
1010.98
1011.03
1011.16
1011.34
1011.47
1011.52
1011.51
1011.44
1011.34
1011.22
1011.18
1011.34
1011.61
1011.76
1011.82
1011.77
1011.68
1011.56
1011.45
1011.33
1011.3
1011.44
1011.71
1011.93
1011.75
1009.89
1009.46
1010.9
1011.42
1011.53
1011.58
1011.63
1011.66
1011.66
1011.58
1011.13
1010.82
1010.82
1010.48
1010.47
1011.24
1011.54
1011.58
1011.57
1011.55
1011.54
1011.53
1011.53
1011.46
1011.05
1012.96
1005.82
1013.06
1009.8
1010.68
1010.97
1011.11
1011.28
1011.41
1011.44
1011.38
1011.34
1011.38
1011.44
1011.49
1011.54
1011.67
1011.87
1011.61
1011.35
1011.41
1011.5
1011.57
1011.61
1011.63
1011.6
1011.54
1011.45
1011.34
1011.37
1011.62
1011.58
1011.53
1011.57
1011.57
1011.49
1011.36
1011.35
1011.42
1011.47
1011.48
1011.47
1011.45
1011.44
1011.47
1011.51
1011.52
1011.53
1011.53
1011.52
1011.52
1011.49
1011.42
1011.34
1011.31
1011.32
1011.43
1011.54
1011.57
1011.54
1011.5
1011.48
1011.49
1011.53
1011.7
1011.84
1011.78
1011.67
1011.58
1011.52
1011.47
1011.38
1011.29
1011.47
1012.26
1012.54
1012.29
1011.87
1011.64
1011.63
1011.55
1011.54
1011.48
1011.52
1011.51
1011.53
1011.53
1011.55
1011.54
1011.53
1011.51
1011.5
1011.51
1011.52
1011.53
1011.49
1011.2
1011.4
1011.85
1011.87
1011.73
1011.07
1010.76
1010.09
1013.55
1010.87
1011.5
1011.54
1011.54
1011.55
1011.55
1011.54
1011.53
1011.53
1011.53
1011.53
1011.55
1011.55
1011.57
1018.37
1017.8
1017.57
1017.4
1018.02
1018.17
1018.5
1018.69
1018.89
1018.9
1018.69
1018.68
1026.77
1021.51
1011.84
1016.83
1024.78
1022.15
1015.6
1015.95
1017.87
1018.78
1019.05
1019.15
1019.21
1019.23
1019.22
1019.15
1019.05
1018.92
1018.74
1018.59
1018.64
1018.83
1018.99
1019.06
1019.07
1019.07
1019.08
1019.06
1018.96
1018.75
1018.75
1018.98
1019.2
1019.32
1019.32
1019.27
1019.22
1019.19
1019.15
1019.19
1019.36
1019.6
1019.68
1019.29
1017.34
1016.63
1018.1
1018.93
1019.12
1019.2
1019.23
1019.24
1019.22
1019.2
1019.17
1019.1
1018.88
1017.94
1017.41
1018.25
1018.76
1019.03
1019.14
1019.18
1019.2
1019.21
1019.22
1019.26
1019.45
1020.34
1011.12
1020.29
1018.74
1018.71
1018.7
1018.72
1018.85
1019.01
1019.12
1019.14
1019.12
1019.1
1019.09
1019.1
1019.17
1019.37
1019.58
1019.26
1018.96
1018.95
1019.06
1019.18
1019.22
1019.21
1019.19
1019.18
1019.14
1019.04
1019.15
1020.1
1019.34
1018.92
1019.07
1019.13
1019.06
1018.92
1018.9
1019.02
1019.12
1019.15
1019.13
1019.08
1019.02
1019.09
1019.16
1019.19
1019.19
1019.19
1019.18
1019.17
1019.1
1018.91
1018.8
1018.91
1019.06
1019.15
1019.2
1019.2
1019.15
1019.11
1019.1
1019.09
1019.11
1019.27
1019.51
1019.52
1019.44
1019.3
1019.15
1019.09
1019.09
1019.16
1019.56
1020.35
1020.41
1019.99
1019.59
1019.44
1019.41
1019.38
1019.31
1019.24
1019.19
1019.19
1019.18
1019.2
1019.19
1019.18
1019.16
1019.15
1019.16
1019.18
1019.19
1019.2
1019.09
1018.76
1018.97
1019.45
1019.59
1019.37
1018.46
1018.51
1019.14
1020.12
1019.3
1019.24
1019.21
1019.2
1019.2
1019.2
1019.2
1019.2
1019.2
1019.2
1019.21
1019.22
1019.24
1019.24
1024.73
1024.17
1023.92
1024.67
1024.74
1024.5
1024.05
1024.85
1025.84
1025.67
1024.76
1027.21
1035.85
1020.08
1013.77
1016.48
1025.35
1027.75
1023.34
1022.95
1024.89
1026.24
1026.65
1026.8
1026.91
1026.97
1026.92
1026.82
1026.73
1026.65
1026.5
1026.32
1026.37
1026.57
1026.68
1026.68
1026.64
1026.62
1026.68
1026.81
1026.86
1026.55
1026.09
1025.99
1026.27
1026.6
1026.77
1026.84
1026.87
1026.89
1026.97
1026.94
1026.94
1027
1027.1
1026.8
1025.61
1024.48
1025.37
1026.06
1026.4
1026.56
1026.65
1026.71
1026.71
1026.74
1026.8
1026.8
1026.65
1025.84
1025.09
1025.54
1026.05
1026.35
1026.59
1026.74
1026.81
1026.84
1026.87
1026.92
1027.09
1027.54
1024.24
1027.3
1026.62
1026.54
1026.5
1026.45
1026.45
1026.56
1026.69
1026.78
1026.82
1026.82
1026.8
1026.8
1026.84
1027
1027.12
1026.86
1026.59
1026.51
1026.59
1026.73
1026.81
1026.83
1026.83
1026.82
1026.77
1026.62
1026.95
1033.25
1029.07
1025.76
1026.31
1026.72
1026.76
1026.67
1026.4
1026.36
1026.57
1026.73
1026.74
1026.6
1026.45
1026.64
1026.79
1026.83
1026.84
1026.84
1026.83
1026.81
1026.7
1026.42
1026.36
1026.5
1026.66
1026.74
1026.8
1026.85
1026.85
1026.82
1026.78
1026.74
1026.71
1026.79
1026.94
1027
1027.03
1026.94
1026.8
1026.76
1026.83
1026.96
1027.38
1028.2
1028.24
1027.9
1027.36
1027.16
1027.08
1027.01
1026.9
1026.86
1026.82
1026.82
1026.81
1026.82
1026.82
1026.82
1026.8
1026.8
1026.82
1026.84
1026.87
1026.86
1026.61
1026.37
1026.63
1026.92
1027
1026.87
1026.41
1026.49
1026.93
1027.41
1027.07
1026.91
1026.86
1026.85
1026.85
1026.85
1026.85
1026.85
1026.85
1026.85
1026.86
1026.89
1026.89
1026.9
1032.55
1032.29
1032.38
1032.52
1031.92
1030.82
1028.17
1025.22
1023.56
1026.2
1031.55
1036.61
1041.1
1027.66
1027.62
1033.12
1034.59
1033.72
1031.15
1029.04
1030.77
1033.67
1034.67
1034.92
1035.08
1035.06
1034.81
1034.53
1034.4
1034.3
1034.14
1033.96
1034.03
1034.25
1034.34
1034.33
1034.26
1034.17
1034.19
1034.73
1035.31
1034.36
1033.25
1032.96
1033.12
1033.6
1034.1
1034.42
1034.68
1034.76
1034.46
1034
1033.84
1034.11
1034.35
1034.44
1033.84
1033.15
1033.35
1033.58
1033.73
1033.83
1033.89
1033.69
1033.2
1033.31
1033.67
1033.69
1033.34
1033.04
1033.04
1033.34
1033.52
1033.66
1033.91
1034.16
1034.33
1034.42
1034.48
1034.53
1034.64
1034.79
1034.29
1034.56
1034.32
1034.28
1034.24
1034.19
1034.1
1034.09
1034.21
1034.36
1034.43
1034.46
1034.47
1034.47
1034.53
1034.68
1034.71
1034.51
1034.26
1034.11
1034.11
1034.3
1034.42
1034.46
1034.46
1034.45
1034.34
1033.87
1035.78
1053.34
1048.49
1034.79
1032.96
1033.98
1034.35
1034.3
1033.92
1033.52
1033.69
1033.92
1034.03
1033.76
1033.57
1034.04
1034.38
1034.45
1034.47
1034.47
1034.46
1034.43
1034.28
1033.86
1034.06
1034.09
1034.21
1034.3
1034.4
1034.54
1034.58
1034.54
1034.46
1034.4
1034.37
1034.41
1034.47
1034.5
1034.53
1034.52
1034.49
1034.51
1034.53
1034.59
1034.91
1035.76
1035.84
1036.6
1035.1
1034.75
1034.62
1034.52
1034.47
1034.46
1034.45
1034.45
1034.45
1034.45
1034.45
1034.45
1034.44
1034.44
1034.47
1034.52
1034.57
1034.46
1034.12
1034.03
1034.3
1034.43
1034.45
1034.43
1034.37
1034.35
1034.45
1034.74
1034.88
1034.64
1034.5
1034.48
1034.48
1034.48
1034.48
1034.48
1034.48
1034.48
1034.49
1034.53
1034.55
1034.51
1040.63
1041.17
1041.3
1040.95
1040.27
1038.19
1032.93
1027.18
1025.08
1026.26
1028.83
1034.8
1047.32
1042.21
1041.38
1041.79
1041.69
1040.95
1038.39
1033.85
1034.58
1040.55
1043.6
1043.42
1043.14
1042.77
1042.4
1042.15
1041.97
1041.81
1041.63
1041.38
1041.51
1041.81
1041.94
1041.94
1041.83
1041.53
1041.39
1044.91
1045.67
1042.04
1039.25
1039.79
1039.95
1040.22
1040.72
1041.61
1042.16
1042.27
1042.18
1041.89
1041.7
1041.83
1041.91
1041.96
1041.86
1041.69
1041.61
1041.63
1041.62
1041.57
1041.34
1040.34
1038.99
1039.05
1040.05
1040.46
1040.58
1040.75
1041.01
1041.22
1041.27
1041.21
1041.26
1041.51
1041.8
1041.97
1042.08
1042.15
1042.23
1042.27
1042.17
1042.1
1042.03
1041.99
1042.01
1041.91
1041.73
1041.58
1041.63
1041.86
1042.02
1042.08
1042.1
1042.12
1042.21
1042.38
1042.41
1042.24
1042.05
1041.82
1041.73
1041.82
1041.99
1042.06
1042.09
1042.02
1041.41
1041.58
1052.68
1059.46
1056.93
1039.79
1039.75
1041.56
1041.95
1041.96
1041.69
1041.3
1041.16
1041.18
1040.95
1040.49
1040.33
1041.22
1041.91
1042.08
1042.08
1042.08
1042.07
1042.05
1041.64
1040.94
1042.76
1041.77
1041.81
1041.95
1042.07
1042.2
1042.27
1042.23
1042.13
1042.05
1042.04
1042.07
1042.09
1042.1
1042.1
1042.11
1042.11
1042.12
1042.12
1042.09
1042.25
1043.54
1043.95
1053.41
1043.27
1042.04
1042.06
1042.06
1042.06
1042.07
1042.07
1042.07
1042.07
1042.07
1042.07
1042.07
1042.07
1042.08
1042.11
1042.13
1042.13
1042.04
1041.78
1041.72
1041.88
1041.99
1042.03
1042.04
1042.04
1042.04
1042.06
1042.17
1042.54
1042.39
1042.12
1042.1
1042.1
1042.1
1042.1
1042.1
1042.09
1042.09
1042.05
1042.35
1042.2
1042.09
1048.09
1049.01
1049.16
1048.92
1048.41
1047.36
1046.24
1044.94
1044.19
1042.24
1038.37
1041.1
1050.7
1051.5
1049.85
1049.27
1048.78
1048.16
1046.04
1040.66
1039.58
1044.86
1049.71
1049.86
1049.73
1049.7
1049.66
1049.62
1049.58
1049.61
1049.41
1048.87
1048.82
1049.12
1049.33
1049.36
1049.17
1048.6
1048.87
1057.27
1054.01
1048.11
1042.97
1045.31
1046.6
1046.06
1045.87
1047.87
1049.41
1049.67
1049.65
1049.6
1049.57
1049.56
1049.55
1049.52
1049.47
1049.46
1049.48
1049.51
1049.48
1049.4
1049.12
1048.1
1046.63
1047.05
1048.2
1048.54
1048.34
1048.37
1048.64
1048.95
1049.01
1048.92
1048.83
1049
1049.15
1049.47
1049.6
1049.72
1049.74
1049.73
1049.6
1049.6
1049.63
1049.68
1049.73
1049.74
1049.62
1049.33
1049.1
1049.26
1049.54
1049.69
1049.71
1049.74
1049.82
1050.01
1049.97
1049.91
1049.81
1049.7
1049.58
1049.6
1049.67
1049.72
1049.7
1049.54
1048.28
1047.66
1060.2
1060.65
1058.49
1042.51
1047.68
1049.34
1049.63
1049.68
1049.64
1049.49
1049.27
1048.96
1048.5
1047.65
1046.47
1047.35
1049.12
1049.67
1049.64
1049.6
1049.62
1049.76
1048.77
1048.99
1054.62
1049.95
1049.62
1049.68
1049.75
1049.85
1049.96
1049.92
1049.76
1049.68
1049.68
1049.69
1049.7
1049.7
1049.7
1049.69
1049.69
1049.67
1049.6
1049.3
1049.29
1054.21
1055.17
1074.24
1052.83
1049.07
1049.49
1049.61
1049.65
1049.67
1049.71
1049.74
1049.74
1049.71
1049.69
1049.66
1049.66
1049.66
1049.67
1049.68
1049.68
1049.64
1049.53
1049.4
1049.44
1049.54
1049.6
1049.64
1049.65
1049.65
1049.66
1049.71
1050.02
1050.07
1049.76
1049.68
1049.69
1049.7
1049.69
1049.69
1049.66
1049.61
1049.43
1051.14
1050.18
1049.52
1052.69
1055.74
1055.99
1055.77
1055.27
1055.37
1055.65
1056.09
1056.31
1055.6
1052.74
1051.14
1055.29
1057.16
1056.9
1056.7
1056.36
1055.79
1053.51
1049.43
1049.47
1054.68
1056.64
1056.92
1057.01
1057.11
1057.18
1057.23
1057.3
1057.44
1057.5
1057.05
1056.75
1056.79
1056.83
1056.81
1056.63
1055.72
1054.6
1064.62
1053.18
1047.62
1048.32
1053.77
1055.32
1053.96
1050.71
1052.39
1055.86
1056.89
1057.09
1057.13
1057.15
1057.15
1057.14
1057.12
1057.1
1057.09
1057.12
1057.14
1057.11
1056.95
1056.52
1055.97
1055.67
1056.04
1056.35
1056.29
1056.05
1055.88
1056.07
1056.42
1056.66
1056.67
1056.78
1056.64
1056.57
1056.03
1056.44
1056.56
1056.73
1056.72
1056.85
1057.09
1057.24
1057.31
1057.4
1057.46
1057.46
1057.28
1056.97
1056.79
1056.98
1057.16
1057.25
1057.2
1057.15
1057.27
1057.33
1057.4
1057.42
1057.44
1057.45
1057.41
1057.34
1057.3
1057.27
1057.2
1056.38
1049.32
1065.85
1062.65
1053.44
1048.86
1057.27
1057.18
1057.26
1057.3
1057.31
1057.29
1057.24
1057.11
1056.81
1055.95
1054.28
1053.34
1054.94
1056.82
1057.18
1057.18
1057.27
1057.55
1055.48
1051.8
1059.79
1057.83
1057.44
1057.44
1057.44
1057.51
1057.71
1057.62
1057.36
1057.28
1057.28
1057.28
1057.28
1057.29
1057.3
1057.29
1057.26
1057.17
1057
1056.52
1055.34
1070.02
1060.37
1079.05
1058.35
1056.12
1056.99
1057.18
1057.22
1057.25
1057.27
1057.29
1057.27
1057.26
1057.24
1057.22
1057.22
1057.23
1057.25
1057.26
1057.26
1057.23
1057.14
1057.01
1056.99
1057.08
1057.17
1057.21
1057.23
1057.24
1057.23
1057.23
1057.35
1057.68
1057.54
1057.15
1057.26
1057.28
1057.28
1057.26
1057.17
1057.05
1056.72
1058.9
1058.43
1056.83
1057.63
1062.4
1063.3
1063.45
1062.99
1062.77
1062.33
1063.3
1063.27
1062.63
1060.72
1057.89
1059.25
1062.14
1064.02
1064.3
1064.41
1063.15
1061.41
1056.98
1058.83
1062.67
1064.21
1064.59
1064.55
1064.49
1064.55
1064.65
1064.84
1065.19
1065.26
1064.78
1064.57
1064.58
1064.59
1064.53
1064.26
1063.31
1062.06
1069.6
1053.43
1049.65
1059.17
1064.38
1064.79
1063.42
1057.63
1056.04
1058.64
1062.12
1063.77
1064.36
1064.57
1064.66
1064.68
1064.68
1064.68
1064.7
1064.78
1064.77
1064.55
1063.93
1063.52
1063.42
1063.68
1064
1064.16
1064.1
1063.86
1063.61
1063.79
1063.96
1064.12
1064.25
1064.22
1064.04
1063.54
1063.38
1063.61
1063.83
1063.8
1063.61
1063.53
1064.32
1064.58
1064.87
1064.98
1065.11
1065.16
1065.12
1064.76
1064.29
1064.26
1064.53
1064.71
1064.75
1064.75
1064.78
1064.79
1064.86
1064.96
1065.05
1065.08
1064.99
1064.84
1064.75
1064.74
1064.74
1064.61
1060.09
1072.85
1055.68
1054.83
1062.6
1066.08
1064.95
1064.85
1064.87
1064.88
1064.88
1064.86
1064.83
1064.8
1064.66
1063.44
1060.67
1060.99
1063.44
1064.54
1064.74
1064.81
1065.02
1063.11
1059.29
1064.95
1064.99
1064.88
1064.89
1064.88
1065.29
1066.11
1065.92
1065
1064.87
1064.84
1064.84
1064.88
1065.04
1065.28
1065.22
1064.91
1064.65
1064.46
1064.08
1062.76
1079.41
1066
1079.19
1068.47
1063.08
1064.49
1064.73
1064.79
1064.8
1064.81
1064.82
1064.82
1064.83
1064.82
1064.81
1064.81
1064.83
1064.84
1064.84
1064.83
1064.77
1064.63
1064.47
1064.5
1064.63
1064.74
1064.79
1064.81
1064.81
1064.81
1064.8
1064.84
1065.16
1065.37
1064.48
1064.82
1064.88
1064.9
1064.88
1064.76
1064.66
1064.72
1065.92
1066.17
1064.12
1065.39
1070.65
1071.52
1071.43
1070.86
1069.64
1068.84
1069.54
1069.87
1069.69
1068.33
1065.27
1062.01
1064.29
1068.94
1072.72
1074.85
1074.88
1070.84
1064.89
1063.95
1067.1
1071.38
1073.21
1071.37
1070.99
1071.58
1072.8
1073.17
1073.14
1072.52
1072.05
1072.11
1072.26
1072.3
1072.25
1072.03
1071.25
1070.61
1078.13
1067.04
1060.06
1069.19
1071.79
1072.41
1071.37
1064.12
1059.32
1061.73
1066.05
1068.8
1070.47
1071.5
1071.96
1072.08
1072.09
1072.04
1072.09
1072.14
1072.16
1071.96
1071.46
1071.05
1070.96
1071.24
1071.58
1071.77
1071.79
1071.68
1071.57
1071.44
1071.42
1071.27
1071.05
1071.28
1071.56
1071.6
1071.57
1071.77
1072.17
1072.2
1071.37
1070.77
1069.59
1070
1070.65
1072.2
1072.53
1072.62
1072.64
1072.43
1071.97
1071.75
1071.92
1072.24
1072.41
1072.5
1072.56
1072.44
1072.3
1072.19
1072.35
1072.47
1072.45
1072.37
1072.3
1072.27
1072.3
1072.51
1073.56
1080.03
1062.48
1056.48
1069.09
1073.09
1072.44
1072.34
1072.42
1072.38
1072.32
1072.3
1072.32
1072.32
1072.25
1071.79
1069.38
1067.67
1070.03
1071.82
1072.28
1072.39
1072.29
1071.19
1070.26
1071.82
1072.04
1072.08
1071.97
1071.83
1072.8
1075.75
1076.46
1072.98
1072.49
1072.41
1072.39
1072.43
1072.61
1072.99
1073.24
1073.07
1072.18
1072
1071.77
1072.84
1084.13
1070.14
1078
1069.34
1071.15
1072.16
1072.32
1072.35
1072.35
1072.35
1072.36
1072.37
1072.38
1072.38
1072.39
1072.44
1072.48
1072.5
1072.47
1072.32
1072.11
1072
1072.02
1072.13
1072.24
1072.31
1072.35
1072.38
1072.39
1072.39
1072.4
1072.41
1072.56
1072.8
1072.1
1072.36
1072.41
1072.43
1072.43
1072.36
1072.3
1072.56
1074.02
1073.35
1071.82
1074.94
1078
1078.81
1078.59
1078.06
1076.38
1076
1077.12
1078.62
1078.79
1078.43
1075.59
1067.68
1065.34
1074.04
1084.57
1090.46
1087.75
1081.89
1075.17
1071.24
1071.32
1071.73
1076.79
1076.25
1076.36
1083.1
1087.24
1085.81
1082.12
1079.17
1078.83
1079.39
1079.74
1079.85
1079.9
1079.84
1079.33
1079.18
1083.84
1080.39
1074.63
1077.34
1078.46
1079.15
1078.44
1072.01
1066.16
1068.65
1072.45
1074.85
1076.35
1077.46
1077.91
1078.03
1077.82
1077.83
1078.42
1079.12
1079.53
1079.48
1079.29
1078.84
1078.58
1078.63
1078.89
1078.93
1078.81
1078.61
1078.71
1078.95
1079.05
1078.91
1078.75
1078.89
1079.16
1079.29
1079.17
1079.36
1079.86
1079.98
1079.78
1079.44
1078.77
1077.45
1077.79
1078.85
1079.46
1079.84
1080.08
1079.93
1079.57
1079.21
1079.35
1079.66
1079.94
1080.08
1080.16
1080.12
1079.66
1079.52
1079.73
1079.89
1079.94
1079.95
1079.95
1079.98
1080.08
1080.55
1082.7
1085.5
1075.62
1064.56
1077.74
1080.2
1079.7
1079.7
1079.82
1079.78
1079.7
1079.69
1079.74
1079.77
1079.68
1079.24
1077.47
1075.09
1076.82
1078.96
1079.64
1079.82
1079.61
1079.03
1078.36
1078.8
1079.06
1079.24
1079.16
1078.87
1079.4
1084.62
1086.2
1080.16
1079.86
1079.93
1079.94
1079.95
1079.99
1080.14
1080.85
1082.43
1080.68
1079.77
1079.5
1090.67
1086.66
1075.64
1077.33
1072.61
1080.16
1080
1079.93
1079.88
1079.81
1079.78
1079.79
1079.85
1079.88
1079.91
1079.95
1080.01
1080.06
1080.08
1080.05
1079.8
1079.59
1079.61
1079.72
1079.78
1079.82
1079.86
1079.9
1079.92
1079.93
1079.94
1079.95
1079.97
1080.03
1080.05
1079.9
1079.93
1079.94
1079.94
1079.95
1079.94
1079.92
1080.31
1082.9
1080.76
1079.34
1083.84
1085.36
1085.22
1084.49
1083.57
1082.16
1082.34
1085.84
1087.35
1087.78
1087.28
1084.61
1075.98
1067.83
1072.28
1082.34
1096.17
1093.84
1088.57
1085.59
1083.28
1078.65
1080.46
1078.42
1076.94
1085.32
1092.87
1097
1093.5
1087.41
1084.48
1084.76
1086.19
1087.12
1087.41
1087.53
1087.63
1087.63
1087.89
1090.01
1088.64
1084.62
1084.25
1085.36
1086.18
1086.22
1083.61
1079.41
1080.34
1082.2
1083.5
1084.42
1084.81
1083.74
1082.1
1082
1083.06
1084.51
1085.71
1086.35
1086.67
1086.43
1085.92
1085.23
1085.09
1085.23
1085.37
1085.38
1085.64
1085.95
1086.26
1086.53
1086.53
1086.39
1086.41
1086.71
1086.82
1086.71
1086.6
1087.01
1087.33
1087.39
1087.37
1087.31
1086.83
1086.65
1087.09
1087.34
1087.38
1087.36
1087.38
1087.18
1087
1086.75
1086.84
1087.14
1087.56
1087.49
1087.12
1086.93
1087.07
1087.28
1087.43
1087.51
1087.62
1087.86
1088.18
1088.27
1088.26
1089.35
1089.9
1085.41
1080.61
1086.14
1087.46
1086.96
1086.96
1087.17
1087.18
1087.13
1087.09
1087.08
1087.05
1086.84
1086.3
1085.13
1083.29
1083.86
1085.55
1086.78
1087.09
1087.08
1086.58
1085.86
1085.24
1085.36
1086.71
1087.44
1087.25
1087.49
1092.7
1093.39
1087.55
1087.58
1087.54
1087.51
1087.51
1087.55
1087.75
1088.63
1092.03
1090.64
1089.04
1089.14
1092.85
1079.49
1075.8
1084.14
1086.95
1088.35
1087.96
1087.53
1086.76
1086.57
1086.92
1087.22
1087.33
1087.38
1087.4
1087.39
1087.38
1087.39
1087.44
1087.44
1087.32
1087.22
1087.29
1087.34
1087.35
1087.34
1087.39
1087.43
1087.45
1087.46
1087.47
1087.5
1087.53
1087.55
1087.52
1087.47
1087.47
1087.47
1087.47
1087.48
1087.48
1087.46
1087.68
1089.69
1087.45
1087.1
1093.27
1092.76
1090.75
1087.93
1083.01
1083.4
1090.57
1097.58
1099.16
1098.11
1095.8
1091.11
1082.96
1074.84
1077.67
1088.56
1098.69
1096.39
1093.64
1093.09
1093.11
1092.23
1096.85
1089.47
1078.04
1081.3
1088.08
1098.35
1096.54
1092.17
1089.99
1090.1
1092.22
1094.24
1094.97
1095.12
1095.2
1095.39
1095.92
1096.82
1095.39
1091.62
1090.54
1091.86
1092.82
1092.98
1092.47
1091.51
1091.82
1092.65
1093.31
1093.82
1093.77
1090.83
1087.1
1088.29
1090.63
1092
1092.85
1093.4
1093.5
1092.95
1091.38
1090.16
1090.32
1091.68
1092.89
1093.4
1093.52
1093.46
1093.47
1093.47
1093.31
1093.54
1093.95
1094.26
1094.42
1094.39
1094.42
1094.69
1094.85
1094.89
1094.9
1094.87
1094.77
1094.75
1094.87
1094.9
1094.9
1094.9
1094.89
1094.87
1094.72
1094.48
1094.23
1094.24
1094.46
1094.17
1094.16
1094.35
1094.57
1094.85
1094.97
1095.13
1095.34
1095.6
1095.71
1095.67
1095.58
1095.7
1095.84
1094.74
1093.62
1094.44
1094.79
1094.35
1094.41
1094.6
1094.66
1094.6
1094.44
1094.25
1094.13
1094.04
1093.9
1093.44
1092.21
1091.31
1092
1093.3
1093.94
1094.12
1093.78
1092.77
1091.45
1091.18
1093.97
1096.27
1096.7
1096.58
1098.96
1098.86
1096.37
1096.08
1095.35
1095.13
1095.14
1095.43
1096.26
1097.63
1099.86
1098.21
1096.23
1096.6
1092.31
1081.73
1079.32
1092.35
1095.63
1095.5
1095.29
1094.89
1094.41
1094.59
1094.84
1094.9
1094.92
1094.92
1094.87
1094.79
1094.73
1094.73
1094.76
1094.81
1094.84
1094.87
1094.93
1094.96
1094.93
1094.88
1094.91
1094.96
1094.96
1094.98
1095.04
1095.14
1095.19
1095.12
1095.04
1095
1094.99
1094.98
1094.99
1094.98
1095
1095.05
1095.21
1095.6
1095.18
1095.02
1100.81
1099.48
1095.55
1086.39
1081.47
1084.15
1096.92
1106.57
1107.48
1105.39
1102.28
1098.31
1093.38
1089.57
1094.93
1102.26
1102.84
1100.81
1098.51
1098.06
1097.53
1097.66
1098.74
1089.94
1080.53
1083.7
1096.2
1103.06
1100.78
1097.82
1095.4
1094.58
1096.81
1101.05
1102.67
1102.64
1102.65
1102.75
1102.84
1102.94
1101.72
1098.9
1097.74
1098.57
1099.46
1100.01
1100.26
1100.47
1101
1101.71
1102.23
1102.3
1101.21
1097.19
1093.61
1095.04
1097.76
1099.34
1099.97
1100.33
1100.29
1099.74
1098.44
1097.37
1098.01
1099.81
1101.03
1101.43
1101.53
1101.42
1101.27
1100.11
1098.55
1100.61
1101.91
1101.89
1102.04
1102.07
1102.18
1102.3
1102.37
1102.39
1102.38
1102.33
1102.28
1102.27
1102.36
1102.43
1102.44
1102.44
1102.41
1102.41
1102.36
1102.28
1102.1
1102.35
1103.49
1102.35
1101.63
1101.8
1102.33
1102.72
1102.94
1102.84
1102.64
1102.65
1102.72
1102.68
1102.68
1102.73
1102.74
1102.51
1102.29
1102.33
1102.3
1101.99
1101.93
1102.08
1102.16
1102.14
1101.97
1101.68
1101.37
1101.27
1101.39
1101.23
1100.35
1098.78
1098.83
1100.17
1101.23
1101.54
1101.5
1100.82
1099.55
1098.8
1100.28
1102.69
1104.03
1103.91
1104.16
1104.35
1105.03
1105.03
1103.7
1103.23
1103.28
1103.97
1105.41
1106.25
1106.14
1104.16
1102.99
1103.05
1103.29
1099.77
1098.11
1102.41
1102.56
1102.52
1102.49
1102.49
1102.5
1102.67
1102.61
1102.48
1102.44
1102.38
1102.24
1102.04
1101.96
1102.06
1102.19
1102.28
1102.34
1102.39
1102.44
1102.46
1102.44
1102.38
1102.44
1102.51
1102.48
1102.52
1102.6
1102.69
1102.7
1102.62
1102.53
1102.51
1102.5
1102.51
1102.49
1102.49
1102.51
1102.58
1102.74
1102.91
1102.73
1102.63
1108.15
1106.34
1100.87
1091.45
1085.79
1089.28
1105.42
1113.45
1111.47
1109.56
1107.34
1104.08
1101.4
1101.96
1106.46
1109.44
1109.33
1107.01
1101.02
1096.11
1096.01
1101.42
1097.98
1088.54
1084.49
1093.38
1107.14
1108.04
1105.78
1103.03
1098.85
1094.78
1098.92
1106.13
1108.85
1109.04
1108.63
1108.5
1108.72
1108.67
1107.98
1106.6
1106.05
1106.63
1107.36
1107.8
1107.85
1107.78
1107.96
1108.61
1109.21
1109.45
1108.64
1105.46
1102.59
1103.24
1104.74
1105.71
1105.75
1105.78
1106.14
1106.55
1106.43
1106.18
1106.81
1108.11
1108.87
1109.28
1109.3
1109.39
1109.64
1107.17
1102.9
1108.9
1109.26
1109.12
1109.19
1109.53
1109.64
1109.77
1109.82
1109.82
1109.74
1109.63
1109.99
1109.53
1109.6
1109.65
1109.67
1109.65
1109.75
1109.79
1109.83
1109.8
1109.81
1110.52
1111.99
1110.33
1109.48
1109.71
1110.76
1111.46
1111.16
1110.43
1109.5
1109.02
1109.04
1109.12
1109.25
1109.48
1109.74
1109.9
1109.9
1109.9
1109.85
1109.71
1109.56
1109.49
1109.64
1109.64
1109.59
1109.33
1108.87
1108.48
1107.97
1107.52
1106.78
1106.48
1107.21
1108.42
1109.1
1109.37
1109.48
1109.43
1109.11
1108.44
1108.09
1108.51
1109.49
1109.92
1109.89
1110.14
1113.36
1113.9
1112.5
1113.17
1113.54
1114.06
1115.35
1113.85
1111.89
1110.56
1110.1
1110.06
1110.1
1109.82
1109.48
1109.92
1109.99
1109.97
1109.96
1109.95
1110.14
1110.6
1110.53
1110
1109.78
1109.63
1109.44
1109.21
1109.15
1109.34
1109.59
1109.72
1109.79
1109.83
1109.86
1109.88
1109.9
1109.89
1109.94
1109.99
1109.95
1110.11
1110.21
1110.18
1110.13
1110.07
1110.04
1110.02
1109.99
1109.97
1109.97
1109.98
1110
1110.09
1110.27
1110.32
1110.25
1110.11
1112.77
1111.2
1108.78
1106.5
1104.55
1112.68
1120.4
1118.73
1116.66
1114.67
1111.49
1107.8
1106.7
1109.93
1114.24
1116.19
1115.25
1110.69
1103.67
1099.42
1101.08
1115.25
1117.12
1104.35
1104.57
1114.05
1115.95
1114.6
1112.37
1108.75
1100.73
1095.23
1097.16
1102.86
1111.77
1115.09
1114.55
1114.75
1114.84
1114.53
1114.3
1114.05
1114.2
1114.78
1115.2
1115.23
1114.6
1113.84
1114.15
1115.26
1116.19
1116.57
1116.51
1115.75
1114.17
1113.36
1113.39
1112.84
1111.78
1111.74
1112.62
1113.71
1114.25
1114.4
1114.86
1116.21
1117.62
1117.88
1117.97
1118.25
1118.52
1111.23
1108.93
1115.12
1117.96
1114.13
1114.43
1115.46
1116.4
1116.8
1116.93
1116.49
1115.76
1116.5
1119.04
1115.99
1115.42
1115.74
1115.98
1116.59
1116.98
1117.19
1117.29
1117.42
1117.77
1119.43
1120.21
1118.63
1117.56
1117.65
1118.21
1118.93
1118.43
1117.31
1116.53
1116.08
1115.76
1115.52
1115.77
1116.25
1116.44
1117.25
1117.4
1117.41
1117.4
1117.34
1117.15
1117.01
1116.75
1116.75
1116.66
1116.56
1116.25
1115.18
1113.66
1113.79
1114.69
1115.26
1115.85
1116.27
1116.55
1116.83
1117
1117.09
1117.05
1116.81
1116.23
1115.65
1115.56
1116.36
1115.39
1116.72
1123.26
1123.74
1120.53
1122.72
1124.22
1126.99
1128.97
1122.93
1118.45
1117.61
1117.45
1117.43
1117.46
1117.43
1117.47
1117.83
1117.91
1117.79
1117.63
1117.76
1118.12
1118.92
1118.28
1117.07
1116.82
1116.84
1116.82
1116.7
1116.57
1116.7
1116.96
1117.14
1117.24
1117.3
1117.32
1117.34
1117.35
1117.35
1117.37
1117.4
1117.44
1117.54
1117.59
1117.6
1117.58
1117.55
1117.5
1117.43
1117.42
1117.42
1117.41
1117.42
1117.45
1117.51
1117.61
1117.82
1117.7
1117.65
1109.47
1118.15
1124.77
1129.53
1132.55
1131.35
1128.02
1125.12
1123.41
1121.77
1118.41
1115.16
1117.2
1121.7
1123.73
1123.33
1121.03
1115.72
1109.59
1107.21
1116.28
1126.47
1127.01
1124.95
1124.26
1124.43
1124.04
1123.31
1122.28
1118.92
1105.99
1097.84
1098.54
1103.16
1115.74
1122.48
1121.97
1121.94
1122.37
1122.64
1122.48
1121.98
1121.5
1121.41
1121.71
1122.11
1122.38
1122.41
1122.76
1123.19
1123.57
1123.85
1123.84
1123.46
1122.79
1122.31
1121.97
1121.16
1120.26
1120.35
1120.76
1121.32
1121.56
1121.22
1121.6
1123.32
1124.34
1124.73
1125.14
1125.52
1119.8
1110.24
1107.8
1112.22
1126.74
1123.57
1120.53
1119.65
1120.85
1122.6
1122.92
1122.56
1121.47
1123.78
1127.2
1122.5
1122.09
1123.13
1123.7
1124.18
1124.44
1124.63
1124.71
1124.8
1125.29
1127.55
1127.61
1125.64
1124.76
1124.76
1125.07
1125.13
1124.97
1124.82
1124.65
1124.39
1123.89
1123.28
1123.74
1124.23
1122.56
1124.36
1124.89
1124.87
1124.86
1124.86
1124.85
1124.63
1124.22
1123.8
1123.59
1123.48
1123.21
1121.64
1119.47
1120.67
1122.94
1123.38
1123.45
1123.42
1123.78
1124.22
1124.52
1124.64
1124.66
1124.54
1124.28
1123.94
1123.68
1123.74
1121.56
1119.78
1129.35
1132.12
1126.92
1128.13
1130.91
1137.3
1141.92
1136.39
1126.1
1124.78
1124.82
1124.86
1124.89
1124.93
1124.97
1125.07
1125.03
1125
1125
1125.07
1125.25
1125.94
1125.11
1124.16
1124.19
1124.32
1124.33
1124.26
1124.16
1124.29
1124.53
1124.67
1124.74
1124.77
1124.79
1124.79
1124.79
1124.79
1124.8
1124.81
1124.83
1124.87
1124.96
1125.03
1124.99
1124.91
1124.86
1124.86
1124.86
1124.86
1124.85
1124.85
1124.87
1124.92
1125.06
1125.15
1125.42
1125.08
1099.75
1106.56
1119.48
1132.39
1141.6
1138.41
1134.07
1131.84
1130.59
1129.17
1126.18
1124.71
1128.52
1131.57
1131.83
1131.6
1130.26
1125.04
1114.84
1117.06
1133.94
1138.26
1135.31
1133.42
1132.6
1132.17
1131.81
1131.28
1130.42
1127.89
1118.03
1107.4
1108.14
1114.1
1125.53
1129.09
1128.77
1129.64
1130.82
1131.28
1131.14
1130.32
1128.74
1127.4
1127.7
1129.34
1130.76
1131.37
1131.48
1131.29
1131.06
1130.77
1130.25
1129.87
1129.84
1129.93
1130.01
1129.97
1129.91
1129.98
1129.81
1129.57
1128.64
1126.98
1126.87
1129.44
1131.25
1132
1132.29
1132.73
1132.84
1122.42
1110.01
1121.41
1133.73
1133.21
1130.05
1127.56
1127.09
1128.32
1129.3
1128.64
1127.12
1128.71
1132.66
1129.98
1130.22
1131.02
1131.29
1131.58
1131.91
1132.11
1132.16
1132.16
1132.99
1136.08
1135.02
1132.6
1131.95
1132.02
1132.19
1132.28
1132.32
1132.36
1132.38
1132.36
1132.17
1131.69
1132.49
1132.53
1128.12
1130.45
1132.27
1132.23
1132.19
1132.2
1132.18
1132.25
1132.23
1132.1
1131.95
1131.67
1130.86
1128.73
1126.09
1128.24
1130.27
1130.74
1130.53
1129.89
1130.26
1132.28
1132.34
1132.28
1132.2
1132.11
1132.01
1131.93
1131.81
1131.54
1128.89
1122.22
1129.14
1137.39
1133.55
1133.45
1134.27
1140.57
1147.1
1144.99
1137.36
1131.97
1132.45
1132.52
1132.6
1132.55
1132.3
1132.15
1132.19
1132.26
1132.3
1132.35
1132.59
1132.96
1132.23
1131.67
1131.84
1131.95
1131.95
1131.82
1131.64
1131.75
1132.01
1132.14
1132.2
1132.22
1132.21
1132.21
1132.21
1132.21
1132.23
1132.24
1132.26
1132.29
1132.37
1132.48
1132.43
1132.34
1132.29
1132.29
1132.29
1132.29
1132.28
1132.29
1132.31
1132.39
1132.63
1132.69
1132.58
1132.64
1100.76
1102.76
1107
1119.38
1139.34
1141.26
1139.52
1138.31
1137.55
1135.56
1133.1
1129.48
1136.45
1138.86
1139.47
1139.41
1138.78
1133.47
1119.45
1124.03
1142.48
1148.87
1146.31
1142.92
1140.76
1139.74
1139.2
1138.7
1137.85
1135.76
1130.27
1123.29
1125.05
1131.07
1135.97
1136.25
1136
1136.9
1138.26
1138.87
1138.87
1138.41
1136.67
1134.15
1134.15
1136.75
1138.5
1139.09
1139.17
1138.98
1138.39
1137.36
1136.69
1136.94
1137.47
1137.76
1137.84
1137.89
1138.12
1138.24
1138.29
1138.01
1135.54
1130.54
1131.02
1136.46
1138.89
1139.46
1139.63
1139.76
1139.92
1136.8
1122.9
1135.64
1140.27
1140.06
1139.05
1136.91
1135.88
1137.02
1137.56
1136.22
1133.91
1134.66
1139.16
1138.09
1138.09
1138.53
1138.79
1139.12
1139.75
1139.91
1139.82
1139.36
1140.19
1142.77
1141.36
1139.26
1139.06
1139.33
1139.42
1139.52
1139.6
1139.7
1139.79
1139.9
1139.96
1139.84
1140.82
1136.37
1129.6
1134.32
1138.71
1139.11
1139.01
1138.95
1139.08
1139.21
1139.44
1139.54