/*--------------------------------*- C++ -*----------------------------------*\
  =========                 |
  \\      /  F ield         | OpenFOAM: The Open Source CFD Toolbox
   \\    /   O peration     | Website:  https://openfoam.org
    \\  /    A nd           | Version:  8
     \\/     M anipulation  |
\*---------------------------------------------------------------------------*/
FoamFile
{
    version     2.0;
    format      ascii;
    class       volVectorField;
    location    "800";
    object      U;
}
// * * * * * * * * * * * * * * * * * * * * * * * * * * * * * * * * * * * * * //

dimensions      [0 1 -1 0 0 0 0];

internalField   nonuniform List<vector> 
20000
(
(2.32028e-06 0 5.59373e-07)
(4.67569e-06 0 2.14892e-06)
(3.18023e-06 0 3.1216e-06)
(7.18819e-07 0 2.09177e-06)
(-2.04964e-07 0 7.69716e-07)
(-1.59213e-07 0 4.4506e-07)
(-3.25805e-07 0 4.67259e-07)
(-9.09159e-07 0 5.46364e-07)
(-1.83141e-06 0 6.75216e-07)
(-3.02873e-06 0 8.13897e-07)
(-4.16007e-06 0 7.63536e-07)
(-2.85237e-06 0 -1.01272e-06)
(1.57277e-05 0 -1.52707e-05)
(3.15693e-05 0 3.73635e-06)
(-3.97158e-05 0 7.50361e-05)
(-0.000172488 0 7.1695e-05)
(-1.9347e-05 0 -0.000200128)
(0.000331296 0 -0.00011693)
(0.00033224 0 0.000142278)
(0.000138812 0 6.21882e-05)
(6.96103e-05 0 1.03594e-05)
(5.88686e-05 0 2.45931e-06)
(5.93617e-05 0 5.5477e-07)
(6.48083e-05 0 -5.34594e-07)
(7.46077e-05 0 -1.40618e-06)
(9.10133e-05 0 -1.58989e-06)
(0.000114643 0 -7.4897e-07)
(0.000146133 0 2.80276e-06)
(0.000175917 0 7.41276e-06)
(0.000192493 0 8.45446e-06)
(0.000189968 0 9.20063e-06)
(0.000169323 0 1.17144e-05)
(0.000142974 0 1.2415e-05)
(0.0001191 0 9.75189e-06)
(0.000103319 0 4.69693e-06)
(9.64067e-05 0 -1.37739e-07)
(9.51372e-05 0 -2.23663e-06)
(9.39816e-05 0 -1.26956e-06)
(8.81067e-05 0 1.99201e-06)
(7.57621e-05 0 5.2664e-06)
(6.05345e-05 0 6.38446e-06)
(4.93192e-05 0 4.35569e-06)
(4.70641e-05 0 9.45032e-07)
(5.65312e-05 0 -3.05664e-06)
(7.57625e-05 0 -6.36172e-06)
(0.000102846 0 -7.9739e-06)
(0.00013154 0 -7.74546e-06)
(0.000158492 0 -5.27211e-06)
(0.000175654 0 -1.5229e-06)
(0.000174998 0 3.55867e-06)
(0.000160666 0 9.37102e-06)
(0.00013724 0 1.2881e-05)
(0.000115971 0 1.13697e-05)
(0.000104728 0 6.01159e-06)
(0.000107615 0 -2.15704e-06)
(0.000128951 0 -1.6219e-05)
(0.000119095 0 1.58532e-05)
(6.43449e-05 0 1.96254e-05)
(2.92444e-05 0 2.10425e-06)
(2.14633e-05 0 6.67134e-07)
(1.88865e-05 0 1.06679e-07)
(1.79734e-05 0 -2.10048e-07)
(1.7703e-05 0 -5.03472e-07)
(1.65893e-05 0 -1.98524e-07)
(1.60181e-05 0 6.15187e-07)
(2.00937e-05 0 -7.45357e-07)
(1.85625e-05 0 6.49094e-06)
(6.24991e-06 0 9.11558e-06)
(-1.82215e-06 0 1.69671e-06)
(-4.76054e-06 0 4.36078e-06)
(-8.70035e-06 0 3.32562e-06)
(-9.56303e-06 0 4.87838e-07)
(-7.99394e-06 0 3.26805e-07)
(-7.36569e-06 0 1.23134e-07)
(-7.41814e-06 0 1.33068e-09)
(-7.87743e-06 0 -1.34639e-09)
(-8.84554e-06 0 2.0971e-08)
(-1.05173e-05 0 4.62394e-08)
(-1.35585e-05 0 2.83515e-07)
(-2.30761e-05 0 3.63388e-06)
(-6.82251e-05 0 3.14963e-05)
(7.76587e-05 0 -0.000196409)
(-8.69697e-05 0 0.000342168)
(-0.000169366 0 -0.000268677)
(1.36583e-05 0 8.88932e-05)
(-7.28771e-05 0 8.72283e-06)
(-6.76113e-05 0 -3.14921e-06)
(-5.14272e-05 0 -2.83768e-06)
(-3.86549e-05 0 -1.53963e-06)
(-2.78764e-05 0 -7.70298e-07)
(-1.77227e-05 0 -7.13117e-07)
(-8.92552e-06 0 -8.69276e-07)
(-3.36421e-06 0 -4.73845e-07)
(-1.01481e-06 0 -2.429e-07)
(-2.7173e-07 0 -1.45798e-08)
(1.73358e-07 0 -1.96267e-08)
(8.06251e-07 0 -1.44677e-07)
(2.73693e-06 0 -7.58825e-07)
(8.71669e-06 0 -2.60097e-06)
(1.51223e-05 0 2.45974e-07)
(1.58736e-05 0 2.48057e-06)
(1.41653e-05 0 1.11946e-06)
(1.39634e-05 0 -3.36575e-09)
(1.58017e-05 0 -1.26387e-06)
(2.04911e-05 0 -2.941e-06)
(2.84128e-05 0 -4.2864e-06)
(3.69126e-05 0 -3.30265e-06)
(4.1996e-05 0 -7.5816e-07)
(4.12892e-05 0 2.45228e-06)
(3.2784e-05 0 6.46877e-06)
(2.0507e-05 0 5.91442e-06)
(1.36818e-05 0 9.90183e-07)
(1.30711e-05 0 -3.03023e-07)
(1.46149e-05 0 -1.01276e-06)
(1.80315e-05 0 -1.98782e-06)
(2.32883e-05 0 -2.6392e-06)
(2.77135e-05 0 -1.44233e-06)
(2.7286e-05 0 1.34242e-06)
(2.23655e-05 0 2.41089e-06)
(1.70958e-05 0 1.80488e-06)
(1.33802e-05 0 1.22657e-06)
(1.07192e-05 0 1.01069e-06)
(8.40675e-06 0 9.93058e-07)
(6.1498e-06 0 1.00364e-06)
(4.02233e-06 0 8.80889e-07)
(2.4046e-06 0 5.25212e-07)
(1.51374e-06 0 2.08941e-07)
(1.12961e-06 0 7.86986e-08)
(9.41114e-07 0 5.13864e-08)
(7.82778e-07 0 6.17744e-08)
(5.87226e-07 0 8.7407e-08)
(3.45969e-07 0 9.26775e-08)
(9.42488e-08 0 7.16462e-08)
(-2.42086e-07 0 1.393e-07)
(-1.11602e-06 0 5.39801e-07)
(-4.10363e-06 0 1.95856e-06)
(-1.08523e-05 0 3.79224e-06)
(-1.74939e-05 0 1.58371e-06)
(-1.91136e-05 0 -8.74191e-07)
(-1.70908e-05 0 -1.58366e-06)
(-1.47274e-05 0 -1.13574e-06)
(-1.3468e-05 0 -5.38086e-07)
(-1.31868e-05 0 -2.36811e-07)
(-1.34079e-05 0 -2.27815e-07)
(-1.36371e-05 0 -3.16977e-07)
(-1.26414e-05 0 -1.51667e-06)
(-9.00231e-06 0 -2.53475e-06)
(-4.95242e-06 0 -1.39766e-06)
(-2.79884e-06 0 -6.34314e-07)
(-1.89697e-06 0 -2.25166e-07)
(-1.75756e-06 0 3.45227e-08)
(-2.22182e-06 0 3.49902e-07)
(-4.0133e-06 0 1.28218e-06)
(-9.32008e-06 0 3.66287e-06)
(-1.78296e-05 0 4.07463e-06)
(-1.21143e-05 0 -1.09388e-05)
(1.82167e-05 0 -2.12052e-05)
(5.28231e-05 0 -1.63419e-05)
(6.98081e-05 0 -4.59569e-06)
(6.78248e-05 0 3.6315e-06)
(5.46055e-05 0 8.30713e-06)
(3.53957e-05 0 1.04064e-05)
(1.90282e-05 0 5.82088e-06)
(1.05985e-05 0 2.46292e-06)
(7.2839e-06 0 7.83745e-07)
(6.21221e-06 0 2.16984e-07)
(6.06956e-06 0 -6.9921e-08)
(6.43092e-06 0 -2.5818e-07)
(7.34334e-06 0 -5.7728e-07)
(9.00323e-06 0 -9.82277e-07)
(1.11037e-05 0 -1.07158e-06)
(1.25007e-05 0 -4.88397e-07)
(1.26419e-05 0 3.97211e-08)
(1.21612e-05 0 1.0731e-07)
(1.18534e-05 0 -1.00352e-07)
(1.22778e-05 0 -6.03813e-07)
(1.35536e-05 0 -1.00418e-06)
(9.84891e-06 0 4.20168e-06)
(2.02278e-06 0 2.87546e-06)
(2.08178e-06 0 -3.68759e-06)
(7.79425e-06 0 -2.58905e-06)
(1.25501e-05 0 -2.63053e-06)
(1.28213e-05 0 1.79496e-06)
(-1.1666e-08 0 9.92009e-06)
(-8.19596e-05 0 6.94235e-05)
(-2.00123e-05 0 -0.000136111)
(6.07363e-05 0 4.96333e-05)
(5.07851e-06 0 1.74905e-06)
(1.31103e-06 0 1.90382e-08)
(5.41662e-07 0 4.03948e-08)
(2.38911e-07 0 2.94193e-08)
(9.88448e-08 0 1.33314e-08)
(3.07717e-08 0 4.55267e-09)
(-1.09978e-08 0 1.84e-10)
(-6.35595e-08 0 3.64418e-09)
(-1.82946e-07 0 2.85536e-08)
(-3.80789e-07 0 2.19869e-08)
(-4.95521e-07 0 -1.12989e-07)
(-4.68386e-07 0 -2.12942e-07)
(-2.19357e-07 0 -2.44569e-07)
(7.15822e-07 0 1.17721e-06)
(1.6876e-06 0 4.96226e-06)
(2.04416e-06 0 7.23507e-06)
(1.66898e-06 0 6.14713e-06)
(1.63442e-06 0 2.7377e-06)
(1.84308e-06 0 2.55605e-06)
(7.49734e-07 0 2.65374e-06)
(-1.05969e-06 0 2.45869e-06)
(-2.73063e-06 0 2.27682e-06)
(-4.09562e-06 0 2.43281e-06)
(-5.92304e-06 0 2.99821e-06)
(-9.17978e-06 0 9.07955e-07)
(3.3295e-05 0 -7.26926e-05)
(0.000102876 0 -1.22779e-05)
(8.19962e-06 0 0.000278466)
(-0.000136734 0 0.000181442)
(-5.26583e-05 0 -0.00049584)
(5.30325e-05 0 -0.00021928)
(4.65669e-05 0 0.000290936)
(4.04697e-05 0 0.000127763)
(3.08396e-05 0 2.64739e-05)
(2.33267e-05 0 6.64031e-06)
(2.28568e-05 0 1.22891e-06)
(2.50342e-05 0 -1.1337e-06)
(2.77606e-05 0 -2.52001e-06)
(3.09351e-05 0 -2.65345e-06)
(3.59769e-05 0 -1.21693e-06)
(4.68842e-05 0 3.68323e-06)
(6.48395e-05 0 1.03624e-05)
(8.09889e-05 0 1.43949e-05)
(8.78872e-05 0 1.94147e-05)
(8.90036e-05 0 2.52508e-05)
(9.05878e-05 0 2.48692e-05)
(9.40573e-05 0 1.84281e-05)
(9.57379e-05 0 9.16278e-06)
(9.19183e-05 0 1.86068e-06)
(8.3178e-05 0 -9.80462e-07)
(7.33077e-05 0 3.91251e-07)
(6.68613e-05 0 4.41686e-06)
(6.53492e-05 0 9.31319e-06)
(6.43892e-05 0 1.36462e-05)
(5.78304e-05 0 1.605e-05)
(4.60727e-05 0 1.06907e-05)
(3.62293e-05 0 -5.60932e-07)
(3.11767e-05 0 -1.05137e-05)
(2.85219e-05 0 -1.51003e-05)
(2.6173e-05 0 -1.4189e-05)
(2.3386e-05 0 -8.6988e-06)
(2.19492e-05 0 -2.27171e-06)
(2.48012e-05 0 4.99254e-06)
(3.42578e-05 0 1.3725e-05)
(4.97198e-05 0 1.93524e-05)
(6.9684e-05 0 1.50185e-05)
(9.40407e-05 0 2.33502e-06)
(0.000117282 0 -1.20839e-05)
(0.000117258 0 -2.60632e-05)
(8.9117e-05 0 4.3807e-05)
(5.09414e-05 0 5.41196e-05)
(2.33815e-05 0 1.0047e-05)
(1.40449e-05 0 2.09907e-06)
(1.19002e-05 0 1.73908e-07)
(1.10002e-05 0 -4.93768e-07)
(9.56682e-06 0 -5.11594e-07)
(6.3322e-06 0 1.08852e-06)
(1.01804e-06 0 3.60556e-06)
(-7.5652e-06 0 3.12396e-06)
(-1.1752e-05 0 1.11757e-05)
(-7.4345e-06 0 1.4565e-05)
(-4.44071e-06 0 5.66779e-06)
(-8.37488e-06 0 1.70177e-05)
(-1.72872e-05 0 1.9035e-05)
(-1.74942e-05 0 6.37502e-07)
(-9.22204e-06 0 -6.42171e-09)
(-4.18639e-06 0 2.14678e-07)
(-2.04218e-06 0 6.52859e-08)
(-1.32491e-06 0 4.44237e-08)
(-1.34349e-06 0 1.01093e-07)
(-1.9027e-06 0 2.29322e-07)
(-3.02266e-06 0 6.16918e-07)
(-1.85881e-06 0 3.79005e-06)
(3.22126e-05 0 2.80417e-05)
(-6.32018e-05 0 -0.000269559)
(-1.92619e-05 0 0.000510695)
(-3.0818e-05 0 -0.000354996)
(-0.000127845 0 9.26709e-05)
(-3.07122e-05 0 7.22494e-06)
(-1.84414e-05 0 -6.55638e-06)
(-1.56139e-05 0 -6.37778e-06)
(-1.21391e-05 0 -3.63118e-06)
(-8.8379e-06 0 -1.68299e-06)
(-6.48619e-06 0 -1.17663e-06)
(-4.92527e-06 0 -1.31153e-06)
(-3.88326e-06 0 -9.54516e-07)
(-2.56551e-06 0 -5.47906e-07)
(-8.2943e-07 0 -6.83932e-08)
(7.71537e-07 0 8.10471e-08)
(2.59753e-06 0 -2.07471e-07)
(6.14318e-06 0 -2.12083e-06)
(1.35154e-05 0 -7.1548e-06)
(2.14802e-05 0 3.67113e-07)
(2.45072e-05 0 6.79987e-06)
(2.38181e-05 0 3.84038e-06)
(2.36264e-05 0 1.42786e-08)
(2.54253e-05 0 -3.59482e-06)
(2.64496e-05 0 -5.40412e-06)
(2.29689e-05 0 -5.28341e-06)
(1.67394e-05 0 -3.4063e-06)
(1.26015e-05 0 -3.44433e-07)
(1.26522e-05 0 3.91216e-06)
(1.6269e-05 0 1.06687e-05)
(1.99598e-05 0 1.08136e-05)
(2.87284e-05 0 -5.36642e-06)
(3.92198e-05 0 -3.13761e-06)
(4.06741e-05 0 -1.69211e-07)
(3.73524e-05 0 -1.76887e-06)
(3.24144e-05 0 -2.12359e-06)
(2.52048e-05 0 1.18668e-06)
(1.70551e-05 0 6.32086e-06)
(1.06586e-05 0 6.94536e-06)
(7.44849e-06 0 4.20024e-06)
(6.55434e-06 0 2.38577e-06)
(6.52821e-06 0 1.86304e-06)
(6.3972e-06 0 2.05102e-06)
(5.55109e-06 0 2.52553e-06)
(3.8638e-06 0 2.57712e-06)
(2.15812e-06 0 1.55946e-06)
(1.19749e-06 0 5.93804e-07)
(8.2838e-07 0 2.03089e-07)
(7.15876e-07 0 9.68679e-08)
(7.06558e-07 0 8.96545e-08)
(7.23716e-07 0 1.29959e-07)
(6.26469e-07 0 1.92335e-07)
(6.71677e-08 0 3.31673e-07)
(-2.03123e-06 0 1.32943e-06)
(-6.76633e-06 0 3.41272e-06)
(-1.14044e-05 0 4.82746e-06)
(-1.11158e-05 0 5.44608e-06)
(-7.78102e-06 0 1.46944e-06)
(-6.06487e-06 0 -2.12765e-06)
(-6.37112e-06 0 -2.82866e-06)
(-7.96182e-06 0 -1.39271e-06)
(-1.04231e-05 0 9.37754e-08)
(-1.33118e-05 0 7.1778e-07)
(-1.65303e-05 0 8.46528e-07)
(-2.06788e-05 0 1.00298e-06)
(-2.42301e-05 0 -2.4446e-06)
(-2.1758e-05 0 -9.02842e-06)
(-1.43758e-05 0 -6.6207e-06)
(-8.65457e-06 0 -3.28465e-06)
(-6.20655e-06 0 -9.97336e-07)
(-6.10601e-06 0 4.17406e-07)
(-7.73743e-06 0 1.85776e-06)
(-1.07771e-05 0 4.32956e-06)
(-1.36614e-05 0 8.38854e-06)
(-1.19444e-05 0 5.4215e-06)
(-2.99409e-06 0 -2.7993e-05)
(4.59471e-06 0 -4.38667e-05)
(3.91376e-06 0 -3.06612e-05)
(2.74197e-06 0 -1.01622e-05)
(8.31241e-06 0 2.5789e-06)
(1.88988e-05 0 1.0847e-05)
(2.87238e-05 0 1.6942e-05)
(3.12579e-05 0 1.3224e-05)
(2.6127e-05 0 8.59291e-06)
(1.91349e-05 0 4.84408e-06)
(1.38511e-05 0 2.44243e-06)
(1.08601e-05 0 8.03885e-07)
(9.72332e-06 0 -3.18843e-07)
(9.8252e-06 0 -1.45816e-06)
(1.09366e-05 0 -2.80593e-06)
(1.28231e-05 0 -3.3734e-06)
(1.49278e-05 0 -2.175e-06)
(1.6503e-05 0 -7.0251e-07)
(1.72357e-05 0 -1.33091e-07)
(1.73779e-05 0 -3.30744e-07)
(1.72889e-05 0 -1.28102e-06)
(1.64717e-05 0 -1.44503e-06)
(1.3651e-05 0 1.01756e-05)
(9.38589e-06 0 7.57359e-06)
(8.6575e-06 0 -9.29352e-06)
(1.55579e-05 0 -1.11519e-05)
(2.70873e-05 0 -1.20865e-05)
(2.19836e-05 0 1.37789e-05)
(6.8398e-06 0 2.26572e-05)
(5.99624e-05 0 8.07826e-05)
(9.94494e-06 0 -0.000165802)
(-4.99638e-05 0 5.17394e-05)
(-1.22166e-06 0 1.78677e-06)
(2.56019e-07 0 6.17151e-08)
(1.3846e-07 0 8.23602e-08)
(8.95377e-08 0 5.9622e-08)
(4.76944e-08 0 3.31933e-08)
(-1.63711e-08 0 1.83299e-08)
(-1.28411e-07 0 7.68804e-09)
(-2.85052e-07 0 1.58935e-09)
(-4.03363e-07 0 3.60312e-09)
(-3.70681e-07 0 -8.89772e-08)
(-2.25472e-07 0 -3.57109e-07)
(-9.81746e-08 0 -4.98908e-07)
(-2.51438e-08 0 -5.42974e-07)
(2.7787e-07 0 1.63568e-06)
(3.86222e-07 0 6.61067e-06)
(4.51428e-07 0 9.32937e-06)
(3.88089e-06 0 6.83138e-06)
(1.15365e-05 0 2.77457e-06)
(1.68652e-05 0 6.57839e-06)
(1.20676e-05 0 1.2057e-05)
(2.30804e-06 0 8.67557e-06)
(-3.55351e-06 0 5.28738e-06)
(-6.97663e-06 0 5.11296e-06)
(-1.34723e-05 0 9.79704e-06)
(-3.03768e-05 0 1.78844e-05)
(0.000171308 0 -0.000318576)
(0.000444023 0 -6.55607e-05)
(0.000266189 0 0.000674672)
(5.59455e-05 0 0.00021642)
(2.39795e-05 0 -0.000518622)
(-6.17238e-05 0 -0.000171342)
(-3.34721e-05 0 0.000241947)
(2.40408e-05 0 0.000128473)
(1.91301e-05 0 3.89133e-05)
(1.00717e-05 0 1.0531e-05)
(7.49251e-06 0 2.23841e-06)
(6.7388e-06 0 -4.81813e-07)
(6.24382e-06 0 -1.59586e-06)
(5.84256e-06 0 -1.68195e-06)
(5.53716e-06 0 -6.11159e-07)
(5.70972e-06 0 1.80195e-06)
(7.56956e-06 0 4.98106e-06)
(1.24743e-05 0 9.59142e-06)
(2.09294e-05 0 1.68541e-05)
(3.11276e-05 0 2.36444e-05)
(4.12964e-05 0 2.20867e-05)
(5.02019e-05 0 1.4865e-05)
(5.45084e-05 0 9.12183e-06)
(5.12492e-05 0 7.34746e-06)
(4.19707e-05 0 7.70758e-06)
(3.17642e-05 0 7.62288e-06)
(2.52361e-05 0 6.70196e-06)
(2.49371e-05 0 6.72239e-06)
(3.23915e-05 0 1.07615e-05)
(4.41746e-05 0 2.12464e-05)
(5.07097e-05 0 2.38912e-05)
(4.83253e-05 0 9.09693e-06)
(4.14708e-05 0 -5.86326e-06)
(3.19758e-05 0 -1.03037e-05)
(2.05813e-05 0 -7.83903e-06)
(1.16986e-05 0 -3.46867e-06)
(7.52185e-06 0 3.38317e-08)
(7.0296e-06 0 3.25864e-06)
(9.98841e-06 0 7.46321e-06)
(1.77146e-05 0 9.86527e-06)
(2.98674e-05 0 2.51241e-06)
(4.16748e-05 0 -1.09066e-05)
(4.53442e-05 0 -1.92473e-05)
(3.81665e-05 0 -1.45774e-05)
(3.65906e-05 0 4.87332e-05)
(3.59528e-05 0 7.34423e-05)
(2.36099e-05 0 2.19678e-05)
(1.3491e-05 0 4.83209e-06)
(9.31163e-06 0 9.72425e-07)
(6.63675e-06 0 1.87631e-07)
(4.25781e-06 0 7.81862e-07)
(2.09946e-06 0 3.22058e-06)
(2.58265e-07 0 6.61315e-06)
(-1.60728e-06 0 8.54381e-06)
(-3.57116e-06 0 1.00994e-05)
(-6.11206e-06 0 1.20763e-05)
(-1.16824e-05 0 1.26947e-05)
(-1.71817e-05 0 3.04085e-05)
(-1.93037e-05 0 3.879e-05)
(-1.87736e-05 0 5.48544e-06)
(-1.264e-05 0 -1.82051e-07)
(-5.20248e-06 0 2.05615e-07)
(-1.92597e-06 0 2.80834e-07)
(-8.79005e-07 0 2.45963e-07)
(-6.73001e-07 0 3.02006e-07)
(-8.6751e-07 0 4.86343e-07)
(-1.40157e-06 0 7.46057e-07)
(-2.29609e-06 0 2.32141e-07)
(-3.35139e-06 0 -7.37451e-06)
(-4.75064e-05 0 -0.000103744)
(-9.49287e-06 0 0.000254545)
(2.49653e-05 0 -0.000125663)
(-1.54277e-05 0 2.44284e-07)
(-8.89207e-06 0 -2.93364e-06)
(-1.11233e-05 0 -5.12392e-06)
(-1.39858e-05 0 -5.28554e-06)
(-1.41034e-05 0 -3.66237e-06)
(-1.12294e-05 0 -1.91369e-06)
(-7.43272e-06 0 -1.10352e-06)
(-4.61516e-06 0 -9.11276e-07)
(-2.94203e-06 0 -8.69968e-07)
(-1.76548e-06 0 -5.30938e-07)
(-2.31801e-07 0 -1.26028e-07)
(1.95433e-06 0 1.75195e-07)
(4.87791e-06 0 -1.41996e-07)
(9.20215e-06 0 -2.92964e-06)
(1.37468e-05 0 -7.98971e-06)
(1.7232e-05 0 1.00635e-06)
(2.02618e-05 0 8.6608e-06)
(2.08384e-05 0 7.04891e-06)
(1.78548e-05 0 2.49705e-06)
(1.28061e-05 0 -1.67277e-06)
(7.24819e-06 0 -2.28387e-06)
(3.40379e-06 0 -7.92951e-07)
(1.83767e-06 0 1.66501e-07)
(1.3943e-06 0 9.25643e-07)
(1.41e-06 0 2.86877e-06)
(1.80124e-06 0 8.2388e-06)
(2.68328e-06 0 9.48379e-06)
(2.51833e-05 0 -3.36098e-05)
(5.12469e-05 0 -9.01526e-06)
(4.35552e-05 0 1.4303e-05)
(2.64387e-05 0 5.92224e-06)
(1.9688e-05 0 2.77867e-06)
(1.79549e-05 0 5.3218e-06)
(1.69956e-05 0 1.05449e-05)
(1.39837e-05 0 1.08215e-05)
(1.01907e-05 0 5.9218e-06)
(8.36415e-06 0 2.40827e-06)
(8.14991e-06 0 1.35413e-06)
(8.51508e-06 0 1.58386e-06)
(8.32929e-06 0 2.90561e-06)
(6.27506e-06 0 4.27518e-06)
(3.5088e-06 0 2.60012e-06)
(1.95747e-06 0 9.15797e-07)
(1.37765e-06 0 3.00485e-07)
(1.14213e-06 0 1.16111e-07)
(1.01256e-06 0 7.7542e-08)
(8.748e-07 0 1.30458e-07)
(5.55643e-07 0 3.54645e-07)
(-5.9906e-07 0 1.18969e-06)
(-4.0781e-06 0 4.3273e-06)
(-8.3697e-06 0 6.65925e-06)
(-9.97698e-06 0 5.0182e-06)
(-8.82208e-06 0 1.9211e-06)
(-7.31501e-06 0 -9.72892e-07)
(-6.85019e-06 0 -2.72434e-06)
(-7.13831e-06 0 -2.41817e-06)
(-7.86695e-06 0 -2.21618e-07)
(-8.60463e-06 0 1.39618e-06)
(-9.03429e-06 0 1.88715e-06)
(-9.56804e-06 0 2.32378e-06)
(-1.10024e-05 0 3.3371e-06)
(-1.4681e-05 0 2.15279e-07)
(-2.13624e-05 0 -9.48224e-06)
(-2.69983e-05 0 -9.22883e-06)
(-2.83637e-05 0 -5.77022e-06)
(-2.89107e-05 0 -8.84508e-07)
(-3.25663e-05 0 3.69605e-06)
(-3.76319e-05 0 5.38631e-06)
(-3.90006e-05 0 5.51554e-06)
(-3.41475e-05 0 5.67354e-06)
(-2.36965e-05 0 -3.49987e-06)
(-1.19621e-05 0 -3.93205e-05)
(-4.88379e-06 0 -4.70396e-05)
(-6.99071e-07 0 -3.10708e-05)
(2.95044e-06 0 -1.23364e-05)
(6.00865e-06 0 -3.88655e-06)
(1.16019e-05 0 1.45175e-06)
(2.20513e-05 0 6.59527e-06)
(3.53405e-05 0 8.35393e-06)
(4.65714e-05 0 7.75867e-06)
(5.30977e-05 0 6.18884e-06)
(5.56175e-05 0 3.78716e-06)
(5.64909e-05 0 1.38327e-06)
(5.67412e-05 0 -2.01235e-07)
(5.57088e-05 0 -8.40377e-07)
(5.18207e-05 0 -9.54317e-07)
(4.42963e-05 0 -1.00187e-07)
(3.44431e-05 0 1.63458e-06)
(2.49296e-05 0 2.73869e-06)
(1.75665e-05 0 2.48843e-06)
(1.27094e-05 0 1.31545e-06)
(1.01317e-05 0 -6.8274e-07)
(8.78178e-06 0 -4.32752e-07)
(9.29997e-06 0 1.0544e-05)
(1.28603e-05 0 6.59517e-06)
(1.38743e-05 0 -1.02482e-05)
(1.09047e-05 0 -1.62116e-05)
(5.52973e-06 0 -1.59041e-05)
(8.82187e-07 0 2.3989e-05)
(2.17234e-06 0 2.27906e-05)
(1.41701e-05 0 1.24951e-05)
(8.77443e-06 0 -4.4268e-05)
(-3.30184e-06 0 9.155e-07)
(-2.6349e-09 0 -5.84865e-08)
(6.144e-08 0 8.90552e-08)
(2.30914e-08 0 8.6264e-08)
(3.19685e-09 0 6.1644e-08)
(-1.15271e-08 0 4.12366e-08)
(-3.31621e-08 0 2.90903e-08)
(-7.32396e-08 0 2.01579e-08)
(-1.37766e-07 0 7.01111e-09)
(-2.13471e-07 0 -4.15226e-08)
(-2.62322e-07 0 -2.36792e-07)
(-1.89044e-07 0 -5.95351e-07)
(-5.96514e-08 0 -6.6575e-07)
(-7.46914e-09 0 -6.22113e-07)
(-1.82962e-06 0 4.87503e-06)
(-3.7234e-06 0 9.06705e-06)
(-1.55779e-06 0 9.55903e-06)
(5.74565e-06 0 2.24296e-06)
(1.57458e-05 0 -1.30026e-06)
(2.84742e-05 0 3.65423e-06)
(3.27804e-05 0 2.55383e-05)
(1.72914e-05 0 2.69749e-05)
(-5.43203e-06 0 1.89754e-05)
(-2.72721e-05 0 1.90242e-05)
(-6.22441e-05 0 4.1073e-05)
(-0.000103795 0 5.77927e-05)
(-8.82798e-05 0 -0.000535482)
(-0.000248893 0 0.000117721)
(-6.07719e-05 0 0.000576434)
(0.000415754 0 0.000127653)
(0.000307718 0 -0.00023882)
(4.30291e-05 0 -7.42708e-05)
(1.62033e-05 0 0.000152547)
(3.89355e-05 0 0.000138038)
(1.54776e-05 0 5.64438e-05)
(3.43424e-06 0 1.40949e-05)
(2.91839e-06 0 2.92243e-06)
(3.92866e-06 0 5.1115e-08)
(4.53991e-06 0 -1.13085e-06)
(4.50527e-06 0 -1.30463e-06)
(3.81107e-06 0 -7.6813e-08)
(2.97981e-06 0 2.06711e-06)
(2.64797e-06 0 4.2079e-06)
(2.97683e-06 0 7.13676e-06)
(4.22967e-06 0 1.29936e-05)
(6.79206e-06 0 1.93365e-05)
(1.09269e-05 0 1.76407e-05)
(1.58406e-05 0 1.04691e-05)
(1.99335e-05 0 7.85152e-06)
(2.28674e-05 0 9.63941e-06)
(2.39877e-05 0 1.31365e-05)
(2.21948e-05 0 1.3575e-05)
(1.97182e-05 0 9.76641e-06)
(2.31059e-05 0 2.58454e-06)
(3.94928e-05 0 -1.29256e-06)
(6.94561e-05 0 8.81518e-06)
(9.54829e-05 0 2.85973e-05)
(9.56611e-05 0 2.31623e-05)
(7.01866e-05 0 9.97873e-06)
(3.94685e-05 0 4.01652e-06)
(1.97324e-05 0 2.39575e-06)
(1.10908e-05 0 2.09292e-06)
(8.67186e-06 0 2.27066e-06)
(9.86651e-06 0 3.34093e-06)
(1.52632e-05 0 4.98448e-06)
(2.50346e-05 0 4.26137e-06)
(3.5524e-05 0 -5.08159e-06)
(4.08344e-05 0 -1.60665e-05)
(3.9206e-05 0 -1.75212e-05)
(3.4984e-05 0 -8.89487e-06)
(4.30904e-05 0 3.26989e-05)
(6.04893e-05 0 7.0555e-05)
(6.15398e-05 0 3.36834e-05)
(4.72703e-05 0 1.31495e-05)
(3.27541e-05 0 7.00452e-06)
(2.127e-05 0 4.95141e-06)
(1.25854e-05 0 4.45924e-06)
(6.38755e-06 0 5.70943e-06)
(1.38651e-06 0 9.12544e-06)
(-3.16823e-06 0 1.08568e-05)
(-6.72249e-06 0 1.17448e-05)
(-1.01498e-05 0 1.51869e-05)
(-1.63911e-05 0 2.24025e-05)
(-2.2433e-05 0 3.99391e-05)
(-1.8891e-05 0 4.48096e-05)
(-1.1646e-05 0 1.36322e-05)
(-8.30689e-06 0 2.51282e-06)
(-5.33842e-06 0 1.41965e-06)
(-2.80113e-06 0 1.23694e-06)
(-1.52801e-06 0 8.85223e-07)
(-1.21712e-06 0 7.57066e-07)
(-1.41212e-06 0 8.54295e-07)
(-1.95126e-06 0 1.11421e-06)
(-3.15698e-06 0 7.90396e-07)
(-7.75732e-06 0 -4.46894e-06)
(-3.72649e-05 0 -3.61682e-05)
(-3.10545e-07 0 0.000108657)
(2.96496e-05 0 -4.67625e-05)
(-5.68407e-06 0 -5.33446e-06)
(-9.64951e-06 0 -2.44572e-06)
(-1.2536e-05 0 -2.55116e-06)
(-1.5185e-05 0 -2.22899e-06)
(-1.60526e-05 0 -1.75396e-06)
(-1.38457e-05 0 -1.23149e-06)
(-9.32778e-06 0 -1.17732e-06)
(-4.90853e-06 0 -1.13967e-06)
(-2.17081e-06 0 -9.07886e-07)
(-8.10019e-07 0 -5.78385e-07)
(1.14744e-07 0 -3.54309e-07)
(1.4736e-06 0 -2.839e-07)
(4.21574e-06 0 -8.39416e-07)
(8.45571e-06 0 -3.50399e-06)
(1.13768e-05 0 -5.41173e-06)
(1.27283e-05 0 2.33747e-06)
(1.40541e-05 0 9.06192e-06)
(1.32176e-05 0 1.04932e-05)
(9.26092e-06 0 7.78139e-06)
(4.66867e-06 0 3.31946e-06)
(1.90424e-06 0 1.13979e-06)
(9.01924e-07 0 6.30314e-07)
(6.04119e-07 0 6.18434e-07)
(4.60614e-07 0 1.09839e-06)
(-1.71626e-09 0 3.23909e-06)
(-2.783e-06 0 1.056e-05)
(-8.90002e-06 0 1.33742e-05)
(2.45527e-05 0 -9.07166e-05)
(9.68576e-05 0 -4.56866e-05)
(0.000101467 0 5.87407e-05)
(5.84641e-05 0 2.50843e-05)
(4.60969e-05 0 4.68508e-06)
(5.18148e-05 0 1.29237e-07)
(6.45035e-05 0 3.08642e-06)
(7.02735e-05 0 1.25921e-05)
(5.95847e-05 0 1.50656e-05)
(4.4492e-05 0 7.28854e-06)
(3.64437e-05 0 2.41694e-06)
(3.30241e-05 0 9.37434e-07)
(2.84988e-05 0 4.2305e-06)
(1.81571e-05 0 1.00839e-05)
(7.64693e-06 0 5.75017e-06)
(2.96539e-06 0 1.83349e-06)
(1.50197e-06 0 6.25083e-07)
(9.43101e-07 0 2.82469e-07)
(6.46655e-07 0 1.92373e-07)
(4.39947e-07 0 2.49692e-07)
(1.98736e-07 0 6.29493e-07)
(-6.17494e-07 0 2.43419e-06)
(-3.43776e-06 0 8.14886e-06)
(-5.36508e-06 0 6.85824e-06)
(-6.56654e-06 0 5.23369e-06)
(-9.73855e-06 0 1.8356e-06)
(-1.32455e-05 0 -3.75993e-07)
(-1.65831e-05 0 -1.83461e-06)
(-1.81021e-05 0 -2.75851e-06)
(-1.6495e-05 0 -1.66321e-06)
(-1.35036e-05 0 -1.3601e-08)
(-1.13317e-05 0 1.08301e-06)
(-1.05172e-05 0 2.33387e-06)
(-1.05584e-05 0 3.98568e-06)
(-1.11946e-05 0 2.48538e-06)
(-1.48804e-05 0 -3.12836e-06)
(-2.15298e-05 0 -4.86469e-06)
(-2.72421e-05 0 -4.1789e-06)
(-2.94494e-05 0 -1.94812e-07)
(-2.68908e-05 0 4.29819e-06)
(-2.10821e-05 0 4.63508e-06)
(-1.56089e-05 0 2.85117e-06)
(-1.22699e-05 0 8.29864e-07)
(-1.17824e-05 0 -8.96154e-06)
(-1.46714e-05 0 -4.22439e-05)
(-1.60816e-05 0 -4.95796e-05)
(-5.11878e-06 0 -4.36583e-05)
(6.74936e-06 0 -1.52672e-05)
(8.92083e-06 0 -6.06446e-06)
(1.00772e-05 0 -2.81496e-06)
(1.14825e-05 0 -4.75998e-07)
(1.28534e-05 0 1.26303e-06)
(1.45831e-05 0 2.23268e-06)
(1.69455e-05 0 2.91196e-06)
(1.88412e-05 0 2.50885e-06)
(1.8902e-05 0 1.48983e-06)
(1.73263e-05 0 7.36756e-07)
(1.54321e-05 0 8.9449e-07)
(1.43478e-05 0 1.94904e-06)
(1.45655e-05 0 3.91221e-06)
(1.54652e-05 0 6.1977e-06)
(1.52749e-05 0 7.62301e-06)
(1.33265e-05 0 6.79923e-06)
(1.12319e-05 0 3.85696e-06)
(1.07789e-05 0 -4.58835e-07)
(1.03447e-05 0 4.5176e-07)
(1.09267e-05 0 7.42009e-06)
(1.45621e-05 0 1.18321e-06)
(1.39934e-05 0 -6.70019e-06)
(4.88131e-06 0 -9.36679e-06)
(-7.56677e-06 0 -7.05764e-06)
(-4.40929e-06 0 1.42989e-05)
(1.06024e-05 0 1.41471e-05)
(1.44516e-05 0 3.79544e-06)
(5.05276e-06 0 -2.1819e-05)
(-1.02629e-06 0 -4.09749e-06)
(4.68008e-07 0 -2.99775e-07)
(2.74825e-07 0 2.06412e-07)
(5.01844e-08 0 1.20998e-07)
(-7.06244e-09 0 6.31942e-08)
(-1.06384e-08 0 3.76176e-08)
(-7.76501e-09 0 2.78285e-08)
(-1.09213e-08 0 2.63584e-08)
(-2.7011e-08 0 2.65744e-08)
(-7.53162e-08 0 -5.2628e-09)
(-1.74946e-07 0 -2.0355e-07)
(-8.04008e-08 0 -8.92751e-07)
(2.00232e-07 0 -9.11192e-07)
(1.61252e-07 0 -5.18969e-07)
(-4.24456e-06 0 1.25301e-05)
(-7.2996e-06 0 9.99062e-06)
(-3.09345e-06 0 6.28609e-06)
(5.38066e-07 0 -9.73702e-07)
(4.91181e-06 0 -6.84107e-06)
(2.90158e-05 0 -1.92962e-05)
(9.05627e-05 0 -4.15273e-06)
(0.000110868 0 7.12991e-05)
(-5.82146e-06 0 0.000138253)
(-0.000163942 0 0.000106141)
(-0.000238875 0 9.36164e-05)
(-0.000195387 0 4.03653e-05)
(-0.000241542 0 -0.000438776)
(-0.00022967 0 0.000223834)
(-3.86058e-05 0 0.00013489)
(5.42987e-05 0 2.68881e-05)
(5.51185e-05 0 -1.55872e-05)
(3.28514e-05 0 -2.00462e-06)
(5.32223e-05 0 9.23489e-05)
(6.44004e-05 0 0.000168935)
(2.07635e-05 0 9.73129e-05)
(-5.05505e-06 0 1.54322e-05)
(1.78708e-06 0 -2.04937e-06)
(9.75776e-06 0 -3.02502e-06)
(1.35741e-05 0 -3.47555e-06)
(1.41043e-05 0 -2.00789e-06)
(1.17834e-05 0 8.64396e-07)
(9.03872e-06 0 3.53282e-06)
(7.27136e-06 0 5.17445e-06)
(6.7453e-06 0 7.87846e-06)
(6.85771e-06 0 1.30208e-05)
(7.14058e-06 0 1.91341e-05)
(7.99552e-06 0 1.56003e-05)
(9.28679e-06 0 8.02605e-06)
(1.09876e-05 0 5.54815e-06)
(1.36185e-05 0 7.07346e-06)
(1.74977e-05 0 1.13056e-05)
(2.06116e-05 0 1.52149e-05)
(2.04341e-05 0 1.3573e-05)
(3.23352e-05 0 -9.39122e-06)
(6.92822e-05 0 -2.78378e-05)
(0.000113231 0 -1.0215e-05)
(0.000129343 0 4.11222e-05)
(0.000117714 0 3.93813e-05)
(9.39609e-05 0 3.31648e-05)
(6.43963e-05 0 2.14325e-05)
(4.47678e-05 0 1.02082e-05)
(3.90174e-05 0 1.18302e-06)
(4.71245e-05 0 -5.16753e-06)
(6.94587e-05 0 -8.34348e-06)
(0.000100815 0 -5.99475e-06)
(0.000125027 0 -6.87693e-07)
(0.000125868 0 -2.72806e-06)
(0.00010736 0 -9.06547e-06)
(8.43331e-05 0 -7.85302e-06)
(6.65129e-05 0 -2.16835e-06)
(6.56001e-05 0 1.84467e-05)
(9.12017e-05 0 4.42064e-05)
(0.000116566 0 3.29703e-05)
(0.000117238 0 2.26081e-05)
(0.00010308 0 1.90325e-05)
(8.24418e-05 0 1.75642e-05)
(6.04877e-05 0 1.39871e-05)
(4.07166e-05 0 1.10967e-05)
(1.01776e-05 0 2.46592e-05)
(-3.00286e-05 0 2.48923e-05)
(-5.33575e-05 0 1.47151e-05)
(-5.98909e-05 0 2.13124e-05)
(-6.27302e-05 0 3.44217e-05)
(-5.46021e-05 0 4.23884e-05)
(-3.22336e-05 0 3.36595e-05)
(-1.36399e-05 0 1.37123e-05)
(-7.04547e-06 0 5.75424e-06)
(-4.65318e-06 0 4.27222e-06)
(-3.47295e-06 0 3.45591e-06)
(-3.15692e-06 0 2.51972e-06)
(-3.40564e-06 0 2.08013e-06)
(-4.27808e-06 0 2.13546e-06)
(-5.68771e-06 0 2.43527e-06)
(-7.47053e-06 0 2.40882e-06)
(-1.03209e-05 0 5.84239e-07)
(-1.84057e-05 0 -5.31329e-06)
(-5.89598e-06 0 2.62175e-05)
(5.54563e-06 0 -8.52811e-06)
(-3.33383e-06 0 -3.07768e-06)
(-6.2649e-06 0 -2.50592e-06)
(-8.40464e-06 0 -2.25157e-06)
(-9.74802e-06 0 -1.72519e-06)
(-9.49337e-06 0 -4.43309e-07)
(-7.32566e-06 0 3.06865e-07)
(-4.48307e-06 0 -2.69999e-07)
(-2.14088e-06 0 -9.69788e-07)
(-8.13422e-07 0 -9.18006e-07)
(-2.14751e-07 0 -7.06068e-07)
(1.33707e-07 0 -6.47005e-07)
(6.67726e-07 0 -9.06582e-07)
(1.9504e-06 0 -1.96737e-06)
(4.44972e-06 0 -4.55617e-06)
(7.63039e-06 0 -4.5114e-06)
(1.11926e-05 0 1.91738e-06)
(1.41684e-05 0 9.16893e-06)
(1.36744e-05 0 1.44452e-05)
(9.06967e-06 0 1.39304e-05)
(4.10109e-06 0 7.29246e-06)
(1.66653e-06 0 2.50398e-06)
(9.65851e-07 0 9.94335e-07)
(7.94669e-07 0 7.3889e-07)
(6.33365e-07 0 1.31085e-06)
(-1.08047e-06 0 5.28567e-06)
(-1.25659e-05 0 2.30344e-05)
(-1.89143e-05 0 1.43844e-05)
(6.36169e-05 0 -0.000204753)
(0.00026854 0 -0.000201839)
(0.000322227 0 0.000166629)
(0.000224418 0 6.65862e-05)
(0.000196523 0 8.42482e-06)
(0.000192619 0 -3.15263e-06)
(0.000188469 0 -2.34379e-06)
(0.000182596 0 1.53595e-05)
(0.00016846 0 3.32894e-05)
(0.00014246 0 2.59247e-05)
(0.000114829 0 1.4721e-05)
(8.92966e-05 0 1.1547e-05)
(5.94486e-05 0 2.02582e-05)
(2.86017e-05 0 2.75732e-05)
(9.20413e-06 0 1.30638e-05)
(2.72281e-06 0 3.5048e-06)
(1.3131e-06 0 1.08486e-06)
(9.24085e-07 0 4.99879e-07)
(7.32605e-07 0 3.31965e-07)
(6.02378e-07 0 3.5754e-07)
(4.36776e-07 0 8.19182e-07)
(-8.78825e-07 0 4.12888e-06)
(-6.71011e-06 0 1.4438e-05)
(-7.00294e-06 0 1.49131e-06)
(-4.59741e-06 0 7.78693e-06)
(-9.0601e-06 0 5.40809e-06)
(-1.35037e-05 0 2.59711e-06)
(-1.60173e-05 0 -3.87946e-07)
(-1.58072e-05 0 -4.13115e-06)
(-1.34181e-05 0 -5.06825e-06)
(-1.06368e-05 0 -2.78495e-06)
(-8.98289e-06 0 -1.31341e-07)
(-8.30371e-06 0 2.04414e-06)
(-7.0481e-06 0 3.00203e-06)
(-5.08141e-06 0 1.72923e-06)
(-4.36961e-06 0 -1.14647e-07)
(-5.41905e-06 0 -9.72171e-07)
(-7.13479e-06 0 -1.25066e-06)
(-7.90625e-06 0 -2.83376e-07)
(-6.62615e-06 0 8.32221e-07)
(-4.65549e-06 0 6.94048e-07)
(-3.64555e-06 0 5.6648e-07)
(-4.25176e-06 0 5.54286e-07)
(-8.42566e-06 0 -4.86035e-06)
(-1.40117e-05 0 -3.77669e-05)
(-2.13467e-05 0 -4.53076e-05)
(-3.76228e-06 0 -7.655e-05)
(1.68685e-05 0 -1.49322e-05)
(1.18035e-05 0 -3.4621e-06)
(6.92434e-06 0 -1.54128e-06)
(3.86002e-06 0 1.15902e-07)
(2.14224e-06 0 1.1763e-06)
(1.37236e-06 0 1.44034e-06)
(1.08572e-06 0 1.63463e-06)
(1.00782e-06 0 1.91246e-06)
(9.51908e-07 0 2.00056e-06)
(8.52878e-07 0 1.81173e-06)
(7.77399e-07 0 1.72202e-06)
(8.57992e-07 0 2.05573e-06)
(1.39407e-06 0 2.98536e-06)
(3.10153e-06 0 4.50696e-06)
(6.77159e-06 0 5.9555e-06)
(1.18643e-05 0 5.53471e-06)
(1.67335e-05 0 2.43468e-06)
(1.90853e-05 0 -1.4405e-06)
(1.57267e-05 0 3.90331e-06)
(1.08132e-05 0 6.71295e-06)
(7.91273e-06 0 -1.10252e-07)
(4.68844e-06 0 -2.53517e-06)
(1.64193e-06 0 -2.18141e-06)
(-3.73128e-07 0 -6.17146e-07)
(5.90308e-07 0 2.88734e-06)
(5.24241e-06 0 5.08151e-06)
(9.55275e-06 0 3.84382e-06)
(3.72399e-06 0 -7.77505e-06)
(-2.03715e-06 0 -7.69701e-06)
(-1.76815e-08 0 -1.32869e-06)
(3.80985e-07 0 5.08718e-07)
(6.56539e-08 0 1.96015e-07)
(6.3748e-09 0 6.47154e-08)
(2.91027e-09 0 3.15054e-08)
(1.2658e-09 0 2.6132e-08)
(-5.71101e-09 0 3.18401e-08)
(-2.83201e-08 0 4.96145e-08)
(-1.15405e-07 0 8.51046e-08)
(-4.33648e-07 0 7.61796e-08)
(-7.39707e-08 0 -1.71581e-06)
(7.89315e-07 0 -1.3622e-06)
(5.22208e-07 0 1.13639e-07)
(-2.82764e-06 0 2.04441e-05)
(-4.77913e-06 0 8.71738e-06)
(-3.66211e-06 0 3.76506e-06)
(-5.11891e-06 0 9.70702e-07)
(-1.35823e-05 0 -2.26625e-06)
(-4.48942e-05 0 -1.0962e-05)
(-0.000102972 0 -1.63269e-06)
(-9.98978e-05 0 7.4684e-05)
(4.94686e-05 0 0.000145594)
(0.000230075 0 0.000125717)
(0.000273084 0 0.00015509)
(0.000156065 0 9.64088e-05)
(-1.89734e-05 0 -0.000241763)
(-6.16376e-05 0 7.47198e-05)
(-7.86335e-06 0 4.64775e-05)
(7.51383e-06 0 1.0538e-05)
(9.20502e-06 0 1.38969e-06)
(1.19145e-05 0 5.04779e-06)
(3.84694e-05 0 4.60739e-05)
(8.8216e-05 0 0.000171854)
(5.26168e-05 0 0.00020319)
(-4.46718e-06 0 1.94143e-05)
(2.37154e-05 0 -2.92214e-05)
(4.53429e-05 0 -5.25672e-06)
(3.77895e-05 0 -1.97432e-06)
(2.86201e-05 0 -2.81978e-07)
(2.46602e-05 0 1.98377e-06)
(2.57065e-05 0 4.03635e-06)