/*--------------------------------*- C++ -*----------------------------------*\
  =========                 |
  \\      /  F ield         | OpenFOAM: The Open Source CFD Toolbox
   \\    /   O peration     | Website:  https://openfoam.org
    \\  /    A nd           | Version:  8
     \\/     M anipulation  |
\*---------------------------------------------------------------------------*/
FoamFile
{
    version     2.0;
    format      ascii;
    class       volScalarField;
    location    "600";
    object      c;
}
// * * * * * * * * * * * * * * * * * * * * * * * * * * * * * * * * * * * * * //

dimensions      [1 -3 0 0 0 0 0];

internalField   nonuniform List<scalar> 
20000
(
0.00507874
0.00510912
0.00510619
0.00519195
0.00533774
0.0054579
0.00549262
0.00550207
0.00549579
0.00548259
0.00545552
0.00540958
0.00536186
0.00509449
0.00491868
0.00511503
0.00645544
0.00664668
0.00568908
0.00528932
0.0054248
0.00547538
0.00550366
0.00553473
0.00556965
0.00559133
0.00556877
0.00551028
0.0054056
0.00538283
0.00531291
0.00525815
0.00524293
0.00529577
0.00538739
0.00546909
0.00550554
0.00548762
0.0054277
0.00535258
0.00534306
0.00542696
0.00558304
0.00574992
0.00585277
0.00593121
0.0058704
0.0057991
0.00560459
0.00543749
0.00532155
0.00528216
0.00536728
0.00550517
0.0056789
0.00566391
0.00496172
0.00473042
0.00519467
0.00542039
0.00549661
0.00553921
0.00560178
0.00565996
0.00563293
0.00548719
0.00522194
0.00499413
0.0050644
0.00521453
0.00539804
0.00556536
0.00565604
0.0056468
0.00559298
0.00554072
0.00551151
0.00549268
0.00548341
0.00548384
0.00563033
0.00741012
0.00451933
0.00708829
0.0054662
0.00522469
0.00524148
0.00529344
0.00539867
0.00546649
0.00545157
0.00534237
0.00527957
0.00538311
0.00547178
0.0055017
0.00553119
0.00558621
0.00565504
0.00558351
0.00548077
0.00548304
0.00550458
0.00554382
0.00559376
0.00562914
0.00560855
0.00554302
0.0054571
0.00536367
0.00533777
0.00542849
0.00548652
0.00550976
0.00552462
0.00553221
0.00551812
0.00548275
0.00546689
0.00547337
0.00548043
0.00548262
0.00548145
0.00547931
0.00547924
0.00548481
0.00549131
0.00549452
0.00549575
0.00549611
0.0054963
0.00549598
0.00549505
0.00549103
0.00547976
0.00544757
0.00541806
0.00545303
0.0054983
0.00552116
0.00552066
0.00551027
0.00550718
0.00551779
0.00553312
0.00556611
0.00554834
0.00553467
0.00552043
0.00550917
0.00549862
0.00548808
0.00546237
0.00543319
0.0054858
0.00565947
0.00572901
0.00576373
0.00566789
0.00563758
0.00564603
0.0056699
0.00555657
0.00552188
0.00549655
0.0055006
0.00549517
0.00549883
0.0054939
0.00549288
0.00548352
0.00548267
0.00548736
0.00548934
0.00549017
0.00548869
0.00547692
0.00543293
0.00550073
0.00557785
0.00554921
0.0055122
0.00544934
0.00533168
0.0052154
0.00599368
0.00549428
0.00550091
0.00550706
0.00550651
0.00550845
0.00550788
0.00550304
0.00549858
0.00549522
0.00549119
0.00549156
0.00549485
0.00550906
0.00550655
0.0159697
0.0157535
0.0155119
0.0155806
0.0158911
0.0163173
0.0164687
0.016489
0.016439
0.0164015
0.0163368
0.0162307
0.016061
0.0148833
0.0142759
0.0159414
0.0198874
0.0193827
0.0166371
0.0156285
0.0161012
0.0163356
0.0164775
0.0165643
0.0166407
0.0166701
0.0166295
0.0165068
0.0163354
0.0162269
0.0160476
0.0159202
0.0159318
0.0160679
0.0162307
0.0163696
0.0164094
0.0163915
0.0163044
0.0161948
0.0161069
0.0162442
0.0165429
0.0168941
0.0170541
0.0171304
0.0170376
0.0168685
0.0166534
0.0164873
0.0163555
0.0163535
0.0165543
0.0168671
0.0169755
0.0165401
0.0149881
0.0145236
0.015665
0.0162732
0.0164747
0.0165636
0.016677
0.0167811
0.0168079
0.0166661
0.0162997
0.015969
0.015897
0.0156904
0.0157732
0.0162859
0.0166413
0.0166835
0.016607
0.0165393
0.0165079
0.0164974
0.0165097
0.0165576
0.0167522
0.0186463
0.0143468
0.0181832
0.0161906
0.0159393
0.0158882
0.0159666
0.0161934
0.016371
0.0163976
0.0162698
0.01615
0.0162365
0.0163418
0.0164411
0.0165548
0.0167472
0.0169564
0.016748
0.016471
0.0164418
0.0165373
0.016628
0.0166707
0.0166479
0.0165902
0.0165046
0.0164027
0.0162483
0.016195
0.0163497
0.016446
0.0164971
0.0165162
0.0165161
0.0164672
0.0163973
0.0163793
0.0164152
0.0164391
0.0164447
0.0164389
0.0164242
0.0164189
0.016437
0.0164584
0.0164672
0.0164698
0.0164701
0.0164687
0.0164648
0.0164502
0.0164151
0.0163725
0.0163573
0.0163495
0.0164106
0.0164758
0.0165054
0.0164913
0.0164663
0.0164629
0.016484
0.0165639
0.0166507
0.0167012
0.0166521
0.0166013
0.0165289
0.016482
0.0164353
0.016373
0.0163326
0.0164505
0.0167321
0.0168088
0.0167796
0.0166907
0.0166553
0.0168175
0.0168262
0.0167499
0.0165684
0.0165519
0.0164914
0.0164917
0.0164692
0.0164661
0.0164351
0.0164084
0.0164095
0.0164268
0.0164433
0.0164556
0.0164586
0.0164197
0.0163082
0.0164524
0.0166532
0.0166359
0.0165053
0.0162294
0.0161149
0.0162022
0.0171508
0.0165201
0.0164999
0.0164917
0.0164872
0.0164868
0.0164844
0.0164776
0.0164735
0.0164714
0.016469
0.0164717
0.0164857
0.0164869
0.0165029
0.0265919
0.0260532
0.0258746
0.02563
0.0263707
0.0265202
0.0269395
0.0270457
0.0272112
0.0272135
0.0270847
0.0267868
0.0275599
0.0231683
0.0215979
0.0262772
0.03093
0.0296787
0.0270382
0.0257987
0.0265344
0.0271117
0.0273552
0.0274718
0.027553
0.0275983
0.0275785
0.0274695
0.0273329
0.027181
0.0269994
0.0268439
0.0269017
0.0270631
0.0272088
0.0272367
0.0272307
0.0272221
0.0272255
0.0271885
0.0271688
0.0272126
0.0275185
0.0277173
0.0278359
0.027884
0.027811
0.0276939
0.0275793
0.0275469
0.0275306
0.0277048
0.0279591
0.0281811
0.0279922
0.027487
0.0257209
0.0251217
0.0260908
0.0270277
0.0273157
0.0274482
0.0275403
0.0276212
0.0276672
0.0276808
0.027668
0.0276294
0.0274502
0.0268132
0.0263037
0.0265909
0.0270834
0.0273358
0.0274214
0.027446
0.0274621
0.0274882
0.027541
0.0276449
0.0279046
0.0287167
0.0275418
0.0281351
0.0272971
0.0270696
0.0269211
0.0269452
0.0271016
0.0273427
0.0274514
0.0274494
0.0273659
0.0273018
0.0272983
0.0273532
0.0274905
0.0277833
0.0280138
0.0277637
0.0274313
0.0274057
0.0274931
0.0275589
0.0275297
0.0274646
0.0274305
0.0274132
0.0273827
0.0273038
0.0272739
0.0274468
0.0273543
0.0273572
0.0274256
0.0274179
0.0273811
0.0272846
0.0272773
0.0273375
0.0273879
0.0274008
0.0273887
0.0273526
0.0273189
0.0273658
0.0274051
0.0274187
0.0274209
0.0274202
0.0274165
0.0274057
0.0273689
0.0272788
0.0272231
0.0272939
0.0273706
0.0274141
0.0274408
0.0274427
0.0274072
0.0273788
0.0273748
0.0273856
0.0274336
0.0275784
0.0276885
0.0276959
0.027655
0.0275352
0.0274022
0.0273222
0.0273233
0.0273983
0.0276453
0.0279494
0.0279211
0.0277648
0.0276562
0.0276398
0.0277108
0.0277877
0.0277136
0.0276298
0.0275285
0.0274838
0.0274218
0.0274164
0.0273986
0.0273871
0.027383
0.0273971
0.0274309
0.0274533
0.0274517
0.0274339
0.027334
0.0271749
0.0273124
0.0275386
0.027582
0.0274076
0.0270722
0.0271566
0.0275927
0.0278066
0.0275579
0.027476
0.0274459
0.0274344
0.0274292
0.0274265
0.0274253
0.0274254
0.0274261
0.0274285
0.0274363
0.0274414
0.0274657
0.0274573
0.0362422
0.0357107
0.0353708
0.0361583
0.0361034
0.0358953
0.035661
0.0364508
0.0373836
0.0373474
0.036886
0.0376845
0.0431488
0.0361722
0.0333998
0.037286
0.0402936
0.0388825
0.0361404
0.0356954
0.0368632
0.0378118
0.0382004
0.038383
0.0385111
0.0385852
0.0385336
0.0383932
0.0382749
0.0381709
0.0380316
0.0378616
0.0379126
0.0380836
0.0381693
0.0381519
0.0380838
0.0380498
0.0381088
0.0382234
0.0383647
0.0385001
0.0386599
0.0384033
0.0382277
0.0383812
0.0384744
0.0385046
0.0385263
0.0385881
0.0388583
0.0390458
0.0391106
0.0388965
0.0388104
0.0383168
0.0376539
0.036347
0.0366909
0.037268
0.0377092
0.0379573
0.0381239
0.038283
0.0384066
0.0385196
0.0386136
0.0387163
0.0387397
0.0383231
0.0374428
0.0371741
0.0374127
0.0377969
0.0381215
0.0382806
0.0383564
0.0384169
0.0385002
0.0386407
0.0389099
0.0393282
0.0390659
0.0388117
0.0383423
0.0381438
0.0380612
0.0380331
0.0381368
0.038312
0.0384403
0.0384539
0.0384144
0.0383484
0.0383013
0.0382979
0.0384266
0.038694
0.038826
0.0385932
0.0383463
0.0382764
0.038291
0.0383396
0.0383484
0.038347
0.0383447
0.038339
0.0383182
0.03827
0.0383546
0.0390418
0.0383214
0.0381212
0.0382622
0.0383711
0.0383522
0.0383343
0.0381579
0.0381401
0.038218
0.0382959
0.0382942
0.0382154
0.0381348
0.0382357
0.0383218
0.0383456
0.0383483
0.0383476
0.0383429
0.0383287
0.0382709
0.0381271
0.0380874
0.038203
0.0382902
0.0383327
0.0383628
0.0383851
0.038377
0.0383492
0.0383183
0.0382953
0.0382948
0.0383702
0.0384503
0.0385085
0.0385123
0.038425
0.0382903
0.0382794
0.0383547
0.0384853
0.038758
0.039105
0.0390434
0.0388407
0.0386541
0.038604
0.038585
0.038543
0.0384491
0.0384166
0.0383768
0.0383683
0.0383379
0.0383408
0.0383451
0.0383575
0.0383781
0.0384217
0.0384656
0.0384754
0.0384556
0.0383784
0.0381543
0.0380242
0.0381953
0.0383511
0.0383886
0.0383094
0.0381655
0.0382401
0.0385113
0.0386601
0.0385328
0.0384252
0.0383792
0.0383605
0.0383545
0.0383526
0.0383526
0.0383533
0.0383549
0.038359
0.0383675
0.0383881
0.0383841
0.0384
0.0474851
0.0471652
0.0471793
0.0471635
0.046348
0.0449562
0.0416737
0.0383847
0.0366804
0.0389525
0.0443905
0.0509586
0.057448
0.0509772
0.0489725
0.0492044
0.0488539
0.0480781
0.0463923
0.0447757
0.0461384
0.0484457
0.0494293
0.0497716
0.0499625
0.049924
0.0496383
0.0493649
0.0491977
0.049151
0.0489512
0.0488309
0.0488329
0.049036
0.0491105
0.0490944
0.0489982
0.0489546
0.0490012
0.0493348
0.0496795
0.0498488
0.049658
0.0487972
0.0483488
0.048521
0.0490496
0.0493649
0.0498995
0.0504532
0.05068
0.0501129
0.0492604
0.0491078
0.0492603
0.049521
0.0491909
0.0484974
0.0481102
0.0480377
0.0481454
0.0482618
0.0483513
0.0482099
0.04793
0.0481757
0.0486581
0.0490707
0.0492583
0.0490255
0.0484477
0.0480998
0.0481008
0.0482619
0.0485706
0.0489373
0.0491737
0.0493278
0.0494578
0.0496277
0.0498501
0.0500721
0.0499903
0.049667
0.0493114
0.0490756
0.0490062
0.0489415
0.0490346
0.0491648
0.049259
0.0492829
0.0492707
0.0492507
0.0492399
0.0492643
0.0493743
0.0495748
0.0496262
0.0494265
0.0492361
0.0490516
0.0490421
0.0491205
0.0492145
0.0492408
0.0492472
0.0492425
0.0492123
0.0490899
0.0495084
0.0560276
0.0503264
0.0485371
0.0490885
0.0492565
0.049313
0.0492331
0.0490255
0.0487716
0.048901
0.0489809
0.0490449
0.048844
0.0487424
0.0490115
0.0492028
0.0492422
0.0492515
0.0492502
0.049247
0.0492264
0.0491388
0.0489276
0.0489543
0.0490594
0.0491284
0.049165
0.0492148
0.0492945
0.0493335
0.0492976
0.049241
0.0491637
0.0491446
0.0491998
0.0492546
0.0492834
0.0492981
0.0492941
0.0492916
0.0493151
0.0493512
0.0494242
0.0496665
0.0500807
0.0500268
0.0499461
0.0496248
0.0494916
0.0493982
0.0493184
0.0492742
0.0492706
0.049267
0.0492683
0.0492652
0.0492658
0.0492637
0.0492663
0.0492792
0.0493134
0.0493742
0.0494163
0.049407
0.0492264
0.0489737
0.0489564
0.0491266
0.0492077
0.0492278
0.0492243
0.0492107
0.0492166
0.0492973
0.0494489
0.0495972
0.0494378
0.0492964
0.0492646
0.0492584
0.0492576
0.0492574
0.0492575
0.0492589
0.049262
0.0492704
0.0492864
0.0493095
0.0492945
0.0590366
0.0593695
0.0593843
0.058955
0.0582042
0.0562207
0.0520957
0.0458552
0.0427624
0.0447302
0.0491454
0.0582071
0.0663199
0.0624545
0.0604208
0.0599331
0.0596439
0.0588547
0.0565873
0.0528505
0.0536519
0.0587739
0.0614653
0.0614868
0.0612048
0.0608356
0.0605053
0.0602541
0.0602342
0.0600783
0.0602361
0.0598345
0.059749
0.0599044
0.0600169
0.0600206
0.0599822
0.059865
0.0600377
0.0614275
0.0626895
0.0603937
0.0597399
0.059046
0.0580652
0.0581862
0.0586481
0.0599244
0.0606898
0.0610275
0.0609197
0.0604656
0.0599687
0.0599544
0.0600011
0.0601138
0.0601129
0.0600076
0.0597796
0.0596599
0.0595817
0.0594932
0.0592207
0.058253
0.0566983
0.0569168
0.058088
0.0591327
0.0593907
0.0592514
0.0591174
0.0591012
0.0589957
0.0588592
0.0589885
0.0594312
0.0598831
0.0601867
0.0603679
0.0605337
0.0607021
0.0608932
0.0608848
0.0606392
0.0602647
0.0600403
0.0598778
0.0598732
0.0598569
0.0598283
0.059917
0.0600671
0.0601353
0.0601529
0.0601589
0.0602078
0.0603559
0.0606291
0.0606794
0.0605053
0.060187
0.0599761
0.0597211
0.0598677
0.0600188
0.0601267
0.0601571
0.0601792
0.0599799
0.0591005
0.0652553
0.0820282
0.065661
0.058134
0.0595658
0.0600215
0.060105
0.0600812
0.0599107
0.0597382
0.0596425
0.0596845
0.0594801
0.0591885
0.0590821
0.0596053
0.0600182
0.0601285
0.0601279
0.0601256
0.060117
0.0600952
0.059873
0.0595299
0.0600293
0.0599965
0.0599824
0.0600389
0.0601148
0.0602018
0.0602463
0.0602059
0.0600996
0.0600405
0.0600694
0.0601115
0.0601333
0.0601418
0.0601484
0.0601583
0.0601729
0.0601985
0.060233
0.0602923
0.0605367
0.0611388
0.0607961
0.0616366
0.0605295
0.060237
0.0601703
0.0601494
0.0601537
0.0601519
0.0601539
0.0601553
0.0601593
0.0601552
0.0601501
0.0601493
0.0601602
0.06019
0.0602107
0.0602162
0.0601824
0.0600884
0.0599592
0.0599539
0.0600265
0.0600738
0.0600985
0.0601107
0.0601156
0.0601194
0.0601425
0.0602491
0.0605229
0.0604427
0.0601913
0.0601447
0.0601386
0.0601379
0.0601373
0.0601374
0.060135
0.060139
0.060146
0.0602459
0.060212
0.0601733
0.0697151
0.0703912
0.0704996
0.0702564
0.0698803
0.0692687
0.0690476
0.068436
0.0678689
0.0667496
0.0659174
0.0690614
0.0741962
0.0735169
0.0716129
0.0706677
0.0700457
0.0693804
0.0676199
0.0638633
0.063485
0.0679666
0.0708671
0.0710273
0.0709829
0.0709807
0.0709722
0.0709782
0.071074
0.0715052
0.0719735
0.0715848
0.0710595
0.0708079
0.0708568
0.0708903
0.0709219
0.070984
0.0723062
0.0785532
0.0775884
0.0711879
0.0678582
0.0683157
0.0677426
0.0673636
0.0679519
0.0699007
0.0710903
0.0711824
0.0710855
0.0709954
0.0709449
0.0709145
0.0709122
0.0709109
0.0709233
0.0709412
0.0709409
0.0709279
0.0708991
0.0708992
0.0708007
0.0701041
0.0688716
0.0689792
0.0695391
0.0696882
0.0695137
0.0693297
0.069556
0.0698834
0.0699584
0.0697672
0.0696611
0.0698265
0.0703652
0.0708157
0.0711873
0.071394
0.0717338
0.0720585
0.0720832
0.0717383
0.0713491
0.0711174
0.0709608
0.0707904
0.0705824
0.0704344
0.0704012
0.0705936
0.0709719
0.0710844
0.0711846
0.0713014
0.0718272
0.0723166
0.0720612
0.071525
0.0711967
0.0709388
0.0707992
0.0708107
0.0710536
0.0711916
0.0712261
0.0712128
0.0706027
0.0686162
0.0784795
0.0884579
0.0798849
0.0671769
0.0702706
0.0708984
0.070985
0.0709879
0.0709523
0.0708777
0.0707622
0.0705794
0.0703705
0.0698996
0.0691187
0.0696552
0.0706497
0.0709783
0.07096
0.0709342
0.0709457
0.0709683
0.0701934
0.0695819
0.0728589
0.0713006
0.0709591
0.0709677
0.0710132
0.0710789
0.0711283
0.0710826
0.0709843
0.0709639
0.0709788
0.070994
0.0709976
0.070998
0.070997
0.0709954
0.0709987
0.071004
0.0710126
0.0709894
0.0713682
0.0723988
0.0713435
0.0792312
0.0712908
0.0708258
0.0709351
0.0709782
0.0710013
0.0710203
0.0710669
0.0710876
0.0710808
0.0710437
0.0710235
0.0710002
0.0710102
0.0710108
0.0709977
0.0709934
0.0709937
0.0709876
0.0709528
0.0709069
0.0708959
0.0709175
0.0709412
0.0709587
0.0709678
0.0709705
0.0709787
0.0710327
0.0713098
0.0713231
0.0710767
0.0709925
0.0709952
0.0709938
0.070995
0.0709917
0.0709986
0.0710529
0.0710927
0.0716142
0.0713853
0.0710138
0.0773681
0.0801936
0.0805069
0.0804168
0.0801095
0.0806252
0.0810266
0.0811433
0.0811944
0.0806799
0.0792927
0.078771
0.0812568
0.0821269
0.0816117
0.0812664
0.0808452
0.0803074
0.0784315
0.0762731
0.0769342
0.0799967
0.081113
0.0813838
0.0815137
0.0816487
0.0817557
0.0818763
0.082074
0.0825629
0.0831848
0.0828922
0.0820392
0.0817046
0.0816565
0.0817442
0.0819526
0.0822633
0.0836364
0.0903923
0.0845967
0.0762602
0.0785892
0.0804237
0.0800696
0.078385
0.0758559
0.0774229
0.080239
0.0812943
0.0815915
0.0816681
0.0817119
0.081736
0.0817553
0.0817784
0.0818187
0.0818403
0.0818354
0.081832
0.0818423
0.0818352
0.0817303
0.0815027
0.0812045
0.081076
0.0809506
0.0806514
0.0801205
0.0797248
0.0799201
0.0804179
0.0807076
0.080745
0.0806508
0.0807616
0.080636
0.081053
0.0816919
0.0825457
0.083032
0.0831528
0.0828624
0.0825003
0.0821971
0.0820707
0.0819751
0.0819146
0.0817633
0.0814436
0.0810849
0.0813718
0.0819776
0.0824202
0.0825045
0.0829437
0.0836696
0.0838086
0.0829599
0.0822639
0.0820559
0.0820151
0.082018
0.082022
0.0820478
0.0819947
0.081913
0.0817966
0.0813287
0.0780759
0.0842049
0.0873863
0.0813115
0.0801931
0.0818316
0.0817972
0.0818212
0.0818342
0.0818396
0.0818274
0.0818009
0.0817329
0.081587
0.0810726
0.0800524
0.0793607
0.0804685
0.0815628
0.081756
0.0817626
0.081796
0.0817705
0.0805271
0.0792362
0.0835671
0.0822746
0.0819242
0.0819088
0.0819167
0.0819663
0.0820366
0.0820016
0.081884
0.0818426
0.0818392
0.0818437
0.0818468
0.0818468
0.0818453
0.081837
0.0818096
0.0817527
0.0816795
0.0816084
0.0817416
0.0848174
0.0825481
0.10417
0.0822929
0.0812975
0.0816687
0.0817773
0.0818076
0.0818396
0.0818612
0.0818715
0.0818496
0.0818353
0.0818215
0.0818205
0.0818372
0.0818357
0.0818335
0.0818317
0.0818305
0.081824
0.0817989
0.0817486
0.081716
0.0817324
0.0817648
0.081788
0.081795
0.0817922
0.0817776
0.0817868
0.0818606
0.0821073
0.0819457
0.081768
0.0817988
0.081834
0.0818363
0.0818499
0.0818456
0.0818549
0.0818664
0.0826102
0.0824939
0.081917
0.0858239
0.0897827
0.0910468
0.0914182
0.0912112
0.0914282
0.0907776
0.0914674
0.0912563
0.0906235
0.0890649
0.0873906
0.0882706
0.0903795
0.091919
0.0920761
0.0920665
0.0907617
0.0896608
0.0869162
0.0886396
0.0909545
0.0919906
0.0922907
0.0923512
0.0924033
0.0925527
0.0927001
0.0929781
0.0935536
0.0936932
0.0930255
0.0926284
0.0925665
0.0926223
0.0927736
0.0929257
0.0930638
0.0937575
0.0983372
0.0941135
0.0888297
0.0925701
0.0932824
0.0930771
0.0909457
0.0847096
0.0820487
0.0844015
0.0885086
0.0908151
0.0918654
0.0922574
0.09244
0.0925316
0.0926093
0.0926803
0.092738
0.092853
0.0928835
0.0927195
0.0921605
0.091923
0.0920151
0.0920912
0.0921005
0.0920061
0.0917629
0.0912841
0.0907419
0.0904749
0.0906195
0.0908879
0.0913387
0.0920835
0.0925873
0.0924302
0.0922084
0.0923941
0.0928225
0.0931459
0.0928731
0.09244
0.0925597
0.0929261
0.0929046
0.0930463
0.0930932
0.0932004
0.093203
0.0931567
0.0933801
0.0936243
0.0936032
0.0935474
0.0936368
0.093873
0.0940473
0.0934764
0.0932246
0.0930782
0.093091
0.0931096
0.0930206
0.0928299
0.0926701
0.092588
0.0925639
0.0925099
0.0917715
0.0998075
0.0869251
0.0818289
0.0919338
0.0929178
0.0925987
0.0926093
0.0926486
0.0926679
0.0926671
0.092643
0.0926235
0.0926074
0.0925179
0.0916992
0.0901487
0.0904044
0.0918277
0.092425
0.092548
0.0925683
0.0925312
0.0915191
0.0909101
0.0928574
0.0926884
0.0926609
0.092693
0.0927613
0.0929624
0.0933566
0.0931959
0.0928393
0.0926967
0.0926874
0.0927064
0.0927999
0.0929899
0.0931212
0.0929632
0.09262
0.0924581
0.0923547
0.0922573
0.0922103
0.104054
0.0937359
0.112929
0.0951004
0.0913473
0.0923144
0.0925311
0.092601
0.0926264
0.0926323
0.0926363
0.0926376
0.092644
0.0926465
0.092666
0.0926759
0.0926842
0.0926622
0.0926498
0.0926348
0.092591
0.092511
0.0924279
0.0924504
0.0925264
0.092582
0.0926063
0.0926139
0.0926096
0.092595
0.0925771
0.0926104
0.092801
0.0928335
0.0924066
0.092551
0.092648
0.0927168
0.0927356
0.0927086
0.092685
0.0927416
0.0930723
0.0933465
0.0926477
0.0980961
0.101739
0.102634
0.10269
0.102353
0.101449
0.100703
0.100916
0.101029
0.10082
0.0995401
0.0969186
0.0940889
0.0963257
0.100043
0.102539
0.104034
0.10495
0.101623
0.097222
0.0969778
0.0998793
0.102684
0.103662
0.102767
0.102755
0.103265
0.104163
0.104435
0.103817
0.103099
0.103106
0.103265
0.103453
0.103528
0.103561
0.1037
0.103877
0.104179
0.108374
0.107232
0.104243
0.104687
0.104987
0.105173
0.103201
0.0965742
0.0912349
0.0926493
0.0951074
0.0980272
0.100649
0.102235
0.102939
0.103166
0.103269
0.103287
0.103409
0.103518
0.10358
0.103393
0.102937
0.102581
0.102494
0.102616
0.102738
0.102762
0.102642
0.102423
0.102166
0.102017
0.101862
0.101891
0.102281
0.103061
0.103479
0.10326
0.102896
0.103
0.103383
0.103506
0.103116
0.102703
0.103562
0.103534
0.10441
0.104548
0.104753
0.104865
0.104939
0.104834
0.10446
0.104029
0.103884
0.103826
0.103806
0.103834
0.103901
0.10426
0.104641
0.10469
0.104201
0.103867
0.103634
0.103463
0.103331
0.103279
0.10334
0.103643
0.104646
0.108756
0.104726
0.0927308
0.10275
0.103489
0.103345
0.103405
0.10355
0.103519
0.103417
0.103376
0.103378
0.103375
0.103326
0.103047
0.101751
0.100781
0.102072
0.10303
0.103307
0.103357
0.103243
0.1027
0.102558
0.103016
0.10319
0.103236
0.103231
0.103296
0.103955
0.105199
0.105572
0.104009
0.103558
0.103464
0.103485
0.103551
0.10378
0.104184
0.104199
0.103807
0.103327
0.103195
0.103083
0.103055
0.1196
0.102205
0.112083
0.0988287
0.10203
0.103131
0.103341
0.103401
0.103411
0.103405
0.103408
0.103417
0.103423
0.103442
0.103476
0.103541
0.103551
0.103521
0.103445
0.103301
0.103158
0.10312
0.103185
0.103286
0.103362
0.103398
0.103412
0.10342
0.103421
0.103423
0.103422
0.103432
0.103525
0.103641
0.103307
0.103376
0.103431
0.103458
0.103491
0.103512
0.103598
0.10375
0.104042
0.103943
0.103549
0.110429
0.11248
0.113235
0.113102
0.112844
0.111561
0.111235
0.111552
0.112786
0.112873
0.112508
0.110091
0.10428
0.101459
0.105799
0.116198
0.12284
0.120592
0.116224
0.111061
0.108035
0.109252
0.111974
0.125924
0.111595
0.111949
0.117717
0.118885
0.11547
0.112394
0.11228
0.112782
0.113677
0.114078
0.114232
0.114417
0.114788
0.115315
0.117256
0.120553
0.119588
0.11658
0.115577
0.115163
0.114868
0.114253
0.11125
0.107295
0.106466
0.106728
0.107917
0.109652
0.111235
0.111743
0.111979
0.111482
0.111495
0.112282
0.113346
0.113978
0.113992
0.113825
0.113502
0.113283
0.113282
0.113385
0.11338
0.11327
0.113355
0.113647
0.113912
0.113854
0.113658
0.113448
0.113424
0.113465
0.113405
0.113445
0.113933
0.114839
0.115162
0.114775
0.114228
0.114074
0.113812
0.114606
0.11547
0.115856
0.115588
0.115248
0.114843
0.11427
0.113969
0.113892
0.114234
0.114389
0.114518
0.114758
0.115183
0.115445
0.114902
0.114475
0.114277
0.11419
0.114138
0.114106
0.11408
0.114288
0.115175
0.116679
0.117988
0.115518
0.111764
0.114029
0.114399
0.114205
0.114215
0.114222
0.114161
0.11408
0.114056
0.114076
0.114086
0.114027
0.113738
0.112752
0.111593
0.112411
0.113546
0.113966
0.114071
0.113944
0.113636
0.11333
0.113511
0.113689
0.113805
0.11384
0.113889
0.114323
0.116644
0.117375
0.114673
0.114138
0.114161
0.114196
0.114238
0.114331
0.114586
0.115262
0.115862
0.115157
0.114649
0.114088
0.117403
0.119193
0.104593
0.115059
0.108732
0.114119
0.114235
0.114196
0.11414
0.114018
0.113945
0.113977
0.114073
0.114127
0.114185
0.114249
0.11432
0.114348
0.114317
0.114232
0.114034
0.113908
0.113965
0.114075
0.114138
0.114173
0.114185
0.114193
0.114196
0.114199
0.114202
0.114209
0.114239
0.114297
0.114299
0.114213
0.114203
0.114202
0.114203
0.114219
0.114276
0.114506
0.114986
0.115627
0.11509
0.114241
0.121927
0.123073
0.122846
0.122169
0.121196
0.120134
0.120309
0.12267
0.124219
0.125087
0.124797
0.122796
0.117864
0.111256
0.113239
0.12465
0.134388
0.131037
0.126301
0.123734
0.121967
0.119732
0.117167
0.133265
0.133983
0.126678
0.128072
0.129258
0.125795
0.122485
0.12144
0.122073
0.123703
0.124651
0.125099
0.125385
0.125856
0.126535
0.127825
0.130346
0.130915
0.12711
0.12431
0.124005
0.124266
0.124395
0.12403
0.122798
0.122007
0.121886
0.122024
0.122237
0.121589
0.119516
0.117666
0.117664
0.119044
0.120912
0.122478
0.123472
0.123949
0.123841
0.123393
0.12288
0.123046
0.123537
0.124
0.124185
0.124243
0.124178
0.124229
0.124352
0.124367
0.124293
0.124353
0.124393
0.124415
0.124504
0.125119
0.125862
0.125772
0.125351
0.125087
0.124914
0.124696
0.124729
0.125103
0.125197
0.125031
0.124884
0.124585
0.124353
0.124067
0.124483
0.125042
0.125976
0.126753
0.126992
0.126791
0.125977
0.125197
0.124976
0.124895
0.124907
0.124953
0.12507
0.125311
0.125793
0.126708
0.127488
0.127227
0.125891
0.124728
0.125093
0.125365
0.124857
0.124672
0.124838
0.124816
0.124764
0.124727
0.124708
0.12467
0.124529
0.124191
0.123552
0.122669
0.122875
0.123803
0.124476
0.124681
0.124689
0.124433
0.124007
0.123679
0.123875
0.124672
0.12513
0.125335
0.125793
0.127974
0.128394
0.125384
0.124976
0.124984
0.12499
0.125005
0.125087
0.125528
0.126605
0.128101
0.127757
0.12659
0.125899
0.128555
0.114203
0.107746
0.123845
0.125119
0.125789
0.125427
0.124566
0.123339
0.123159
0.123971
0.12456
0.124774
0.124863
0.124903
0.124918
0.124917
0.124924
0.124944
0.124913
0.124811
0.124761
0.124832
0.124888
0.124911
0.124919
0.124932
0.124943
0.124943
0.124946
0.124954
0.124984
0.12503
0.125063
0.125037
0.124984
0.124962
0.124957
0.124957
0.124967
0.124994
0.125114
0.125614
0.12651
0.125248
0.124953
0.134237
0.133533
0.131269
0.128221
0.122805
0.12229
0.12672
0.135456
0.139743
0.139957
0.138364
0.134845
0.130586
0.127256
0.129339
0.136476
0.140102
0.136769
0.134365
0.133964
0.134001
0.132873
0.132096
0.136848
0.128531
0.124998
0.133462
0.137847
0.135104
0.132392
0.131009
0.131562
0.133066
0.134953
0.135642
0.136125
0.13632
0.136775
0.137795
0.139328
0.13891
0.135259
0.133078
0.133233
0.133734
0.134063
0.134533
0.135269
0.135922
0.136163
0.136222
0.136044
0.134088
0.13047
0.127886
0.129384
0.13099
0.132037
0.132929
0.133619
0.133845
0.133402
0.132059
0.130882
0.131403
0.133135
0.134513
0.134763
0.13458
0.134326
0.134253
0.134397
0.134497
0.134959
0.135419
0.135726
0.13581
0.135905
0.136048
0.136057
0.135873
0.135735
0.135654
0.135624
0.135637
0.135697
0.13569
0.135648
0.135589
0.135503
0.13544
0.13531
0.135268
0.135336
0.13588
0.137435
0.139349
0.138828
0.137026
0.135649
0.135482
0.135476
0.135657
0.135773
0.136064
0.136406
0.136644
0.136678
0.136624
0.136535
0.13645
0.136136
0.135828
0.135887
0.135911
0.135479
0.135455
0.135513
0.13553
0.135476
0.135331
0.135187
0.135102
0.135044
0.134964
0.134725
0.134109
0.133579
0.133869
0.13462
0.135047
0.135222
0.135081
0.134508
0.133859
0.133887
0.135473
0.136763
0.13722
0.13736
0.138224
0.138123
0.136643
0.136309
0.135931
0.135798
0.135867
0.136374
0.137517
0.138612
0.139125
0.137829
0.136491
0.136177
0.137912
0.132777
0.125741
0.136299
0.13628
0.136203
0.135836
0.135012
0.134616
0.135164
0.135523
0.135639
0.135653
0.135653
0.135603
0.135542
0.135493
0.135492
0.135512
0.135543
0.135569
0.135605
0.135657
0.135672
0.135651
0.135611
0.135655
0.135661
0.135671
0.135685
0.135747
0.135871
0.135941
0.135889
0.135792
0.135726
0.135709
0.135688
0.135691
0.135689
0.135708
0.135774
0.135951
0.136053
0.135958
0.135781
0.14487
0.143423
0.139482
0.130049
0.12355
0.125447
0.136964
0.148222
0.151975
0.150339
0.14763
0.14476
0.142473
0.142364
0.144441
0.14661
0.146052
0.144285
0.142892
0.142786
0.142454
0.141927
0.151175
0.137615
0.122416
0.132385
0.147988
0.147068
0.144043
0.142038
0.140996
0.139961
0.1414
0.143669
0.145771
0.146537
0.147162
0.147462
0.147629
0.147519
0.146779
0.144721
0.142901
0.142646
0.143344
0.144457
0.145551
0.146432
0.147111
0.147872
0.148286
0.147383
0.144671
0.140178
0.137998
0.139324
0.141494
0.142798
0.143402
0.143908
0.144096
0.143961
0.143405
0.142807
0.143196
0.144159
0.144842
0.145096
0.145071
0.144908
0.144739
0.14429
0.143683
0.145451
0.146646
0.146814
0.146721
0.146692
0.146571
0.146458
0.146377
0.146348
0.146342
0.146346
0.146398
0.146424
0.146419
0.146426
0.146551
0.146816
0.146904
0.14662
0.146364
0.146158
0.146072
0.146683
0.147861
0.146948
0.145933
0.145855
0.146133
0.146715
0.147021
0.147419
0.147386
0.147362
0.147157
0.146972
0.146909
0.146916
0.146906
0.146749
0.146562
0.146501
0.14646
0.146229
0.14615
0.146258
0.146233
0.146197
0.146047
0.145834
0.145606
0.145569
0.145676
0.145588
0.145102
0.144186
0.144131
0.144958
0.145583
0.145861
0.145843
0.145336
0.144728
0.144536
0.145656
0.146895
0.147736
0.147653
0.147728
0.147751
0.147908
0.147878
0.147302
0.147063
0.147209
0.14774
0.148712
0.149233
0.148558
0.147176
0.146498
0.146461
0.146719
0.146461
0.145556
0.146587
0.14649
0.146437
0.146415
0.146482
0.146637
0.146846
0.146708
0.146507
0.14641
0.146294
0.146128
0.145936
0.145891
0.146012
0.146141
0.14623
0.146285
0.14633
0.146365
0.146367
0.146308
0.146272
0.146302
0.14639
0.146385
0.146437
0.14654
0.146655
0.146667
0.146593
0.146494
0.146458
0.14643
0.14644
0.146411
0.146406
0.146422
0.146484
0.146626
0.146781
0.146622
0.146545
0.155535
0.153967
0.149793
0.144467
0.14166
0.146955
0.158473
0.159836
0.158223
0.156886
0.155345
0.153205
0.15177
0.152886
0.15519
0.156445
0.156242
0.154779
0.151157
0.147207
0.145951
0.1523
0.160087
0.140165
0.126398
0.151904
0.157738
0.156146
0.154784
0.153865
0.151901
0.14702
0.147779
0.151052
0.155525
0.157219
0.157393
0.155702
0.154011
0.153495
0.153161
0.153343
0.153783
0.15468
0.155524
0.156153
0.156499
0.156494
0.156219
0.156341
0.156716
0.156729
0.155696
0.153182
0.151322
0.151582
0.152374
0.152415
0.151982
0.152276
0.153141
0.154157
0.15453
0.154296
0.154203
0.154535
0.155017
0.155299
0.155468
0.15541
0.155254
0.153724
0.151602
0.154637
0.157845
0.157497
0.157558
0.157305
0.157221
0.157112
0.157067
0.157062
0.157071
0.157214
0.157491
0.157468
0.157441
0.15782
0.158238
0.15842
0.15793
0.157381
0.157066
0.156949
0.156856
0.157687
0.158372
0.157734
0.15686
0.157292
0.158225
0.159625
0.160456
0.160009
0.158611
0.157711
0.15772
0.157813
0.157944
0.157904
0.157694
0.157404
0.157198
0.157107
0.15706
0.157017
0.156999
0.156876
0.15697
0.156891
0.156839
0.15662
0.156304
0.156048
0.155698
0.155334
0.15497
0.155032
0.155387
0.156002
0.156417
0.156609
0.156709
0.156713
0.15658
0.156354
0.156288
0.156728
0.157372
0.157894
0.157595
0.15752
0.158621
0.159428
0.159517
0.159841
0.159922
0.159511
0.159444
0.158749
0.1578
0.157167
0.157008
0.157045
0.157198
0.157342
0.157328
0.157401
0.157244
0.157125
0.15711
0.157117
0.157418
0.15783
0.157742
0.157165
0.156861
0.156647
0.156437
0.156234
0.15624
0.156453
0.156708
0.156857
0.156931
0.156975
0.157007
0.157023
0.157031
0.157021
0.157062
0.157072
0.157054
0.157254
0.157375
0.157354
0.157292
0.157237
0.157203
0.157176
0.157131
0.157097
0.157091
0.157098
0.157116
0.157204
0.157375
0.157388
0.157354
0.157216
0.163134
0.162398
0.16141
0.164149
0.169147
0.171514
0.170728
0.168335
0.166805
0.165349
0.16325
0.160898
0.160429
0.162746
0.165601
0.167046
0.166046
0.163007
0.159257
0.156577
0.156855
0.163526
0.171229
0.167986
0.16287
0.16744
0.167329
0.167094
0.166752
0.165751
0.159944
0.152354
0.152863
0.158206
0.164413
0.165435
0.163727
0.160688
0.159552
0.1599
0.162042
0.16416
0.165528
0.16641
0.166754
0.167067
0.16667
0.164588
0.164019
0.16546
0.166457
0.167007
0.167132
0.166883
0.166208
0.165642
0.165087
0.163433
0.16147
0.161675
0.163154
0.164562
0.16504
0.164865
0.164607
0.164766
0.165035
0.165274
0.165294
0.165261
0.164876