/*--------------------------------*- C++ -*----------------------------------*\
  =========                 |
  \\      /  F ield         | OpenFOAM: The Open Source CFD Toolbox
   \\    /   O peration     | Website:  https://openfoam.org
    \\  /    A nd           | Version:  8
     \\/     M anipulation  |
\*---------------------------------------------------------------------------*/
FoamFile
{
    version     2.0;
    format      ascii;
    class       volScalarField;
    location    "600";
    object      c_0;
}
// * * * * * * * * * * * * * * * * * * * * * * * * * * * * * * * * * * * * * //

dimensions      [1 -3 0 0 0 0 0];

internalField   nonuniform List<scalar> 
20000
(
0.00508129
0.00511239
0.0051104
0.00519509
0.00533886
0.00545779
0.00549253
0.00550215
0.00549617
0.00548328
0.00545644
0.00540992
0.00535983
0.00510612
0.00495007
0.00513722
0.00637953
0.00657006
0.00569496
0.00530813
0.00542702
0.00547505
0.00550334
0.00553515
0.00557033
0.00559244
0.00556806
0.00550816
0.00540087
0.00537714
0.00530675
0.00525247
0.00523771
0.00529161
0.00538475
0.00546778
0.00550492
0.00548654
0.00542554
0.00534905
0.00533984
0.00542528
0.00558339
0.0057526
0.00585747
0.00593744
0.00587656
0.00580378
0.00560736
0.0054375
0.00531816
0.00527592
0.00536011
0.00549746
0.0056703
0.00565256
0.00496994
0.00473507
0.00518919
0.00541848
0.0054966
0.00554021
0.00560452
0.00566424
0.0056339
0.00548245
0.00521674
0.00498714
0.00505483
0.00521017
0.00539748
0.00556729
0.00566095
0.00565202
0.00559638
0.00554239
0.00551222
0.00549283
0.00548354
0.00548676
0.00562942
0.00726054
0.00460557
0.00693639
0.00549198
0.00522933
0.00523715
0.00528764
0.00539422
0.00546368
0.00544797
0.00533529
0.00527096
0.00537901
0.00547077
0.00550186
0.00553248
0.00558893
0.00565706
0.00558474
0.0054819
0.00548351
0.00550569
0.00554587
0.00559765
0.00563491
0.00561293
0.00554447
0.00545471
0.00535541
0.0053286
0.00542338
0.00548491
0.00550926
0.00552465
0.00553235
0.0055181
0.0054824
0.00546646
0.00547297
0.0054801
0.00548231
0.00548115
0.00547906
0.00547913
0.00548484
0.00549143
0.00549458
0.0054957
0.00549588
0.00549584
0.0054953
0.00549449
0.00549092
0.00548087
0.00545189
0.00542657
0.00545705
0.00549717
0.00551776
0.00551759
0.00550834
0.00550571
0.00551553
0.00553005
0.00556113
0.00554569
0.00553242
0.00551913
0.0055084
0.00549854
0.00548867
0.0054649
0.00543971
0.00549441
0.00566367
0.00572939
0.00576422
0.00566902
0.00563865
0.00564274
0.00566834
0.00555584
0.00552238
0.00549646
0.00550085
0.00549521
0.00549907
0.00549403
0.00549318
0.00548357
0.00548234
0.00548689
0.00548888
0.00548984
0.0054886
0.00547775
0.00543659
0.00550198
0.0055759
0.00554799
0.00551174
0.005451
0.00533751
0.00522811
0.00595694
0.00549814
0.00550091
0.00550644
0.00550604
0.00550789
0.00550733
0.00550273
0.00549847
0.00549525
0.00549136
0.00549163
0.00549466
0.00550839
0.0055059
0.015972
0.01576
0.0155225
0.0155895
0.0158941
0.0163157
0.0164673
0.016489
0.0164406
0.0164039
0.01634
0.0162323
0.0160446
0.014919
0.0143812
0.0159683
0.0196649
0.0192347
0.0166701
0.0156672
0.016106
0.0163358
0.0164773
0.0165653
0.0166419
0.0166714
0.0166291
0.0165043
0.0163299
0.0162185
0.0160392
0.0159114
0.0159226
0.0160602
0.0162248
0.016366
0.0164065
0.016388
0.016299
0.016187
0.016098
0.0162381
0.0165421
0.0168997
0.0170648
0.0171436
0.0170503
0.0168771
0.0166577
0.0164873
0.0163509
0.0163452
0.0165449
0.0168581
0.0169627
0.0165259
0.014998
0.0145251
0.0156508
0.0162686
0.0164752
0.0165667
0.0166832
0.0167896
0.0168136
0.0166651
0.0162963
0.0159598
0.0158783
0.0156743
0.0157664
0.0162824
0.0166459
0.0166902
0.0166115
0.0165417
0.0165094
0.0164986
0.0165119
0.0165648
0.0167748
0.0185684
0.0146155
0.018081
0.0162208
0.0159432
0.0158782
0.0159537
0.0161837
0.0163653
0.0163923
0.0162609
0.0161381
0.0162272
0.0163364
0.0164393
0.0165568
0.016753
0.0169612
0.0167527
0.0164737
0.0164433
0.0165388
0.0166323
0.0166768
0.0166546
0.0165948
0.0165057
0.0163994
0.0162369
0.0161746
0.0163309
0.0164393
0.0164965
0.0165169
0.0165165
0.0164672
0.0163967
0.0163787
0.0164145
0.0164385
0.016444
0.0164382
0.0164235
0.0164185
0.0164369
0.0164586
0.0164673
0.0164698
0.0164699
0.0164682
0.0164636
0.0164483
0.0164134
0.016375
0.0163661
0.016363
0.0164155
0.0164719
0.0164989
0.0164875
0.0164655
0.0164626
0.0164822
0.0165564
0.0166415
0.0166873
0.0166404
0.0165929
0.016526
0.0164823
0.0164393
0.016383
0.0163509
0.0164705
0.0167392
0.0168066
0.0167746
0.0166886
0.0166537
0.016815
0.0168232
0.016752
0.0165695
0.016554
0.0164919
0.0164925
0.0164694
0.0164665
0.016435
0.0164076
0.016408
0.0164251
0.0164419
0.0164548
0.0164587
0.0164224
0.0163175
0.0164579
0.0166498
0.0166314
0.0165026
0.0162355
0.0161243
0.0162159
0.0171084
0.0165241
0.0164999
0.0164912
0.0164867
0.0164862
0.0164839
0.0164773
0.0164732
0.016471
0.0164686
0.0164712
0.0164847
0.0164857
0.0165013
0.0265974
0.0260675
0.0258912
0.025647
0.0263714
0.0265207
0.0269416
0.0270518
0.0272162
0.0272193
0.0270949
0.0267996
0.0273794
0.0231617
0.0218364
0.0262717
0.0306839
0.0295529
0.0270598
0.0258334
0.0265406
0.0271108
0.027355
0.0274724
0.0275537
0.0275986
0.0275779
0.0274681
0.0273307
0.0271777
0.0269945
0.0268374
0.0268955
0.0270576
0.0272044
0.0272321
0.0272257
0.0272165
0.0272188
0.0271793
0.027157
0.0272027
0.0275151
0.0277238
0.0278487
0.0278976
0.0278217
0.0277003
0.0275826
0.027548
0.0275301
0.0277036
0.0279608
0.0281846
0.0279902
0.0274744
0.025712
0.0251048
0.0260695
0.0270206
0.027316
0.0274512
0.0275457
0.0276284
0.0276752
0.0276881
0.0276736
0.0276304
0.0274409
0.026802
0.0262965
0.0265762
0.0270734
0.0273327
0.0274213
0.0274468
0.0274635
0.0274907
0.0275456
0.0276533
0.0279167
0.0286906
0.0276292
0.0281038
0.027302
0.0270676
0.0269122
0.0269326
0.0270903
0.0273355
0.0274488
0.0274486
0.027364
0.0272969
0.0272926
0.027349
0.0274897
0.0277869
0.0280177
0.0277668
0.0274323
0.0274026
0.0274909
0.0275603
0.0275324
0.0274659
0.0274309
0.0274131
0.0273819
0.0272994
0.0272563
0.0274169
0.0273463
0.0273623
0.0274284
0.0274201
0.0273811
0.027284
0.0272749
0.0273357
0.0273864
0.0273995
0.0273869
0.0273504
0.0273165
0.0273646
0.0274047
0.0274189
0.0274212
0.0274206
0.0274169
0.0274057
0.0273682
0.0272789
0.0272265
0.0272981
0.0273718
0.0274099
0.027434
0.0274378
0.027408
0.0273826
0.0273789
0.0273894
0.0274354
0.0275714
0.0276709
0.0276764
0.0276424
0.0275355
0.0274156
0.0273414
0.0273431
0.0274178
0.0276584
0.0279476
0.0279129
0.0277574
0.0276525
0.0276383
0.02771
0.0277888
0.0277166
0.0276349
0.0275314
0.0274862
0.0274224
0.0274171
0.0273987
0.0273868
0.0273827
0.0273962
0.02743
0.0274528
0.0274513
0.027434
0.0273375
0.0271849
0.0273186
0.0275358
0.0275758
0.0274032
0.0270811
0.0271638
0.0275855
0.0277884
0.0275536
0.0274744
0.0274452
0.0274342
0.0274291
0.0274265
0.0274253
0.0274252
0.0274257
0.0274279
0.0274353
0.02744
0.0274637
0.0274554
0.0362637
0.035739
0.0354045
0.0361749
0.0361162
0.0359078
0.0356889
0.0364765
0.0373957
0.0373659
0.0369258
0.037683
0.0426828
0.0362605
0.0337428
0.0374076
0.0401757
0.0388156
0.0361578
0.0357208
0.0368692
0.0378094
0.0381985
0.0383819
0.0385094
0.0385826
0.0385308
0.0383909
0.0382728
0.0381681
0.0380279
0.0378564
0.0379078
0.03808
0.0381661
0.038148
0.0380779
0.0380423
0.0380999
0.0382111
0.0383479
0.0384844
0.0386529
0.038414
0.0382459
0.0383948
0.0384826
0.0385091
0.0385288
0.0385893
0.0388575
0.0390478
0.0391204
0.038909
0.0388143
0.0383087
0.0376353
0.0363194
0.0366567
0.0372516
0.0377024
0.0379545
0.0381235
0.038286
0.0384137
0.0385282
0.0386217
0.0387235
0.0387438
0.0383279
0.0374454
0.0371574
0.0373889
0.0377809
0.0381143
0.0382783
0.0383567
0.0384194
0.0385055
0.0386498
0.0389219
0.0393291
0.0390862
0.0388071
0.0383444
0.0381423
0.0380561
0.0380253
0.038127
0.0383036
0.038436
0.0384533
0.0384149
0.0383479
0.0382991
0.038295
0.0384241
0.0386926
0.0388234
0.0385913
0.0383429
0.0382697
0.0382859
0.0383372
0.038348
0.0383469
0.0383447
0.038339
0.0383186
0.0382714
0.0383473
0.0389595
0.0383182
0.0381486
0.0382778
0.0383764
0.0383547
0.0383277
0.0381465
0.0381292
0.0382096
0.038289
0.0382858
0.0382046
0.0381265
0.038231
0.0383198
0.0383451
0.0383483
0.0383479
0.0383435
0.0383299
0.0382739
0.0381353
0.0380958
0.038205
0.0382858
0.0383256
0.038355
0.038381
0.0383773
0.0383521
0.0383237
0.0383027
0.0383038
0.038373
0.0384435
0.0384957
0.0385042
0.0384318
0.0383071
0.0382941
0.0383635
0.0384898
0.0387562
0.0390917
0.0390282
0.038828
0.0386489
0.0386025
0.0385849
0.0385443
0.0384506
0.0384184
0.0383778
0.0383691
0.0383381
0.038341
0.0383455
0.0383582
0.038379
0.038423
0.0384674
0.0384768
0.0384564
0.0383787
0.0381571
0.038032
0.0381991
0.0383504
0.0383855
0.0383075
0.0381699
0.0382423
0.0385041
0.038646
0.0385247
0.0384218
0.0383779
0.0383601
0.0383545
0.0383526
0.0383526
0.0383532
0.0383547
0.0383585
0.0383664
0.0383862
0.0383822
0.0383977
0.0475045
0.0471889
0.0472015
0.0471804
0.0463686
0.0449758
0.0417134
0.0384657
0.0367917
0.0390126
0.0443359
0.0508352
0.0570917
0.0510227
0.0490365
0.0491974
0.0488359
0.0480627
0.0463942
0.0448173
0.0461624
0.0484336
0.0494132
0.0497577
0.0499475
0.0499086
0.0496269
0.0493588
0.0491935
0.049148
0.0489451
0.0488245
0.0488277
0.0490333
0.0491084
0.0490916
0.0489934
0.0489474
0.0489908
0.0493123
0.0496397
0.0498273
0.0496547
0.0488162
0.0483755
0.0485389
0.0490614
0.0493742
0.0499073
0.0504576
0.050679
0.050121
0.0492731
0.0491173
0.0492602
0.0495125
0.0491766
0.048478
0.0480817
0.0480111
0.0481208
0.048237
0.048328
0.0481976
0.0479379
0.0481894
0.0486665
0.0490788
0.0492702
0.0490368
0.0484493
0.0480816
0.0480729
0.0482344
0.048551
0.0489277
0.0491711
0.0493301
0.0494641
0.049638
0.049863
0.0500829
0.0500012
0.0496713
0.0493131
0.0490742
0.0490028
0.0489359
0.0490256
0.0491545
0.0492507
0.0492784
0.0492687
0.0492495
0.0492387
0.0492627
0.0493721
0.0495712
0.0496218
0.0494254
0.0492327
0.0490482
0.0490357
0.0491183
0.0492135
0.0492406
0.0492472
0.049243
0.0492149
0.0491032
0.0494904
0.0553613
0.0502252
0.0486564
0.0491446
0.0492763
0.0493184
0.0492282
0.0490132
0.048753
0.0488811
0.0489572
0.0490215
0.0488235
0.0487315
0.0490021
0.0491975
0.0492393
0.0492503
0.0492496
0.0492472
0.0492275
0.0491445
0.0489439
0.0489698
0.0490717
0.049136
0.0491683
0.0492144
0.0492919
0.0493285
0.0492975
0.049247
0.0491779
0.049159
0.0492064
0.0492544
0.0492804
0.0492957
0.0492943
0.0492929
0.0493146
0.0493493
0.0494218
0.0496611
0.0500636
0.0500101
0.0499239
0.0496181
0.0494907
0.0493984
0.0493192
0.0492748
0.0492712
0.0492675
0.0492688
0.0492656
0.0492662
0.0492641
0.0492668
0.0492801
0.0493151
0.0493774
0.0494205
0.0494108
0.0492262
0.0489781
0.0489623
0.0491286
0.0492078
0.0492275
0.0492242
0.0492114
0.0492174
0.0492947
0.0494381
0.0495799
0.049429
0.0492943
0.0492642
0.0492583
0.0492575
0.0492574
0.0492575
0.0492588
0.0492616
0.0492696
0.0492845
0.0493072
0.0492926
0.0590525
0.0593784
0.0593916
0.0589659
0.058219
0.0562531
0.0521944
0.04607
0.0430482
0.0449876
0.0494039
0.0583398
0.0660881
0.0623944
0.0604151
0.0599302
0.0596413
0.0588582
0.0566161
0.052954
0.0537175
0.0586954
0.0613884
0.0614435
0.0611755
0.0608159
0.0604939
0.0602466
0.0602306
0.0600707
0.0602273
0.0598226
0.0597425
0.0599013
0.0600154
0.0600192
0.0599804
0.0598622
0.0600279
0.0613053
0.0625084
0.060359
0.0597639
0.0590696
0.0580961
0.0582175
0.058679
0.0599487
0.0607084
0.0610434
0.0609298
0.0604759
0.0599778
0.0599585
0.0600014
0.0601108
0.0601067
0.0599978
0.0597654
0.0596411
0.0595594
0.0594672
0.059196
0.0582545
0.0567185
0.0569331
0.05808
0.0591306
0.0593895
0.0592427
0.0591007
0.0590794
0.0589683
0.0588257
0.0589571
0.059412
0.0598759
0.0601883
0.0603747
0.060544
0.060714
0.0609053
0.0608959
0.0606479
0.0602709
0.060044
0.0598791
0.0598704
0.0598479
0.059813
0.0599023
0.0600581
0.0601314
0.0601515
0.0601585
0.0602076
0.0603549
0.0606248
0.060679
0.0605083
0.0601952
0.0599791
0.0597272
0.0598679
0.0600204
0.0601273
0.0601593
0.0601821
0.0599984
0.0591728
0.0648392
0.0813739
0.0652421
0.0583279
0.0596366
0.060045
0.0601151
0.0600859
0.0599105
0.0597324
0.059623
0.059656
0.0594422
0.0591544
0.0590639
0.05959
0.0600068
0.0601239
0.0601243
0.0601225
0.0601125
0.0600907
0.059877
0.0595577
0.0600415
0.0600262
0.0600083
0.0600548
0.0601191
0.0601951
0.0602381
0.0602062
0.0601121
0.0600555
0.0600776
0.0601141
0.0601334
0.0601411
0.0601471
0.0601566
0.0601703
0.0601949
0.0602291
0.0602906
0.0605374
0.0611257
0.0607959
0.0615459
0.0605272
0.0602416
0.0601729
0.0601508
0.0601548
0.0601528
0.0601547
0.0601561
0.0601602
0.060156
0.060151
0.0601505
0.0601622
0.0601935
0.0602147
0.0602199
0.0601841
0.0600891
0.0599629
0.0599586
0.0600287
0.0600741
0.0600985
0.0601108
0.060116
0.0601198
0.0601422
0.0602442
0.0605078
0.0604308
0.0601891
0.0601443
0.0601386
0.0601379
0.0601373
0.0601374
0.0601354
0.0601398
0.0601467
0.060241
0.0602091
0.0601725
0.0697321
0.0703973
0.0705038
0.0702628
0.0698896
0.0692874
0.0690787
0.0685033
0.0679699
0.0668831
0.0661053
0.0691187
0.0740564
0.0734274
0.0715906
0.0706646
0.070054
0.0693947
0.0676533
0.0639699
0.0636065
0.0679878
0.0708274
0.0710056
0.0709711
0.0709737
0.0709682
0.0709758
0.0710733
0.0715064
0.0719698
0.0715757
0.0710545
0.0708028
0.070854
0.0708888
0.0709219
0.0709912
0.0722489
0.0780934
0.0772084
0.0709724
0.0679058
0.0683144
0.0677504
0.0674007
0.0680203
0.0699454
0.071115
0.0711954
0.0710922
0.0709984
0.0709456
0.070914
0.070911
0.0709091
0.0709203
0.0709361
0.0709343
0.0709208
0.0708927
0.0708945
0.070802
0.0701227
0.0689108
0.0690021
0.0695332
0.0696694
0.0694883
0.0692982
0.0695266
0.0698589
0.0699344
0.0697377
0.0696283
0.0697971
0.0703503
0.0708117
0.0711916
0.071402
0.0717456
0.0720744
0.072102
0.071755
0.0713614
0.0711264
0.0709678
0.0707942
0.0705795
0.0704216
0.0703824
0.0705773
0.0709637
0.0710837
0.0711866
0.0713051
0.0718221
0.0723054
0.0720591
0.0715339
0.071208
0.0709543
0.0708138
0.070826
0.0710627
0.0711961
0.0712283
0.0712198
0.070658
0.0687877
0.0783098
0.0886122
0.0797189
0.0674645
0.0703321
0.0709145
0.0709921
0.0709932
0.070957
0.0708794
0.0707571
0.0705586
0.070318
0.0698133
0.0690343
0.069603
0.0706186
0.0709642
0.0709504
0.0709209
0.0709236
0.0709294
0.0701774
0.0696109
0.0728029
0.0713693
0.0710033
0.0709838
0.0710154
0.0710744
0.0711245
0.0710868
0.0709934
0.0709689
0.0709802
0.0709935
0.0709968
0.070997
0.070996
0.0709944
0.0709974
0.0710023
0.0710109
0.0709962
0.0713901
0.072386
0.0713126
0.07852
0.0712718
0.0708418
0.0709401
0.0709804
0.0710033
0.0710228
0.0710713
0.0710928
0.0710855
0.071047
0.0710265
0.0710024
0.0710124
0.0710126
0.0709986
0.0709939
0.0709942
0.070989
0.0709564
0.0709123
0.0708993
0.0709188
0.070941
0.0709585
0.0709677
0.070971
0.0709786
0.0710315
0.0712979
0.071312
0.0710733
0.0709925
0.0709951
0.0709939
0.0709951
0.0709923
0.0710005
0.0710565
0.0710992
0.0715921
0.0713771
0.071017
0.0774206
0.0802048
0.0805181
0.0804263
0.0801182
0.0806267
0.0810355
0.0811553
0.081205
0.0806981
0.0793329
0.0787957
0.0812124
0.0820832
0.0815981
0.0812643
0.0808494
0.0803153
0.0784628
0.0763512
0.0770007
0.079991
0.0810954
0.0813694
0.0815043
0.0816436
0.0817538
0.0818767
0.0820768
0.0825682
0.0831891
0.0828943
0.082038
0.0817013
0.0816529
0.0817415
0.0819545
0.0822798
0.0836212
0.0899485
0.0845507
0.0763767
0.0786734
0.080398
0.0800325
0.0783703
0.0759339
0.0774794
0.0802574
0.0813029
0.0815959
0.0816698
0.0817122
0.0817354
0.0817543
0.0817768
0.081816
0.0818361
0.08183
0.0818267
0.0818392
0.0818388
0.0817479
0.0815306
0.0812283
0.0810829
0.080943
0.0806332
0.0800903
0.0796833
0.0798816
0.0803901
0.080687
0.0807282
0.0806335
0.0807444
0.0806096
0.0810264
0.081668
0.0825359
0.0830332
0.0831625
0.0828776
0.0825135
0.0822074
0.0820795
0.081984
0.0819233
0.08177
0.0814452
0.0810782
0.0813576
0.0819671
0.0824197
0.0825098
0.0829405
0.0836552
0.0837788
0.0829512
0.0822695
0.0820637
0.0820246
0.08203
0.0820328
0.0820509
0.0819954
0.0819149
0.0818027
0.0813569
0.0783105
0.0841399
0.0876381
0.0813424
0.0803745
0.0818304
0.0817996
0.0818248
0.0818386
0.0818442
0.081831
0.0818019
0.0817272
0.0815612
0.0810012
0.0799787
0.0793145
0.0804315
0.0815404
0.0817446
0.0817506
0.0817797
0.0817361
0.0805415
0.0793808
0.0835531
0.0823363
0.0819423
0.0819088
0.0819124
0.0819596
0.082032
0.082
0.081886
0.0818428
0.081838
0.0818414
0.0818441
0.0818446
0.0818441
0.0818367
0.08181
0.0817546
0.081685
0.0816267
0.0817873
0.084646
0.0824834
0.103434
0.0822439
0.0813253
0.0816748
0.0817798
0.0818096
0.081843
0.0818655
0.0818758
0.0818523
0.0818373
0.0818229
0.0818217
0.0818384
0.0818362
0.0818339
0.0818322
0.0818313
0.0818258
0.0818028
0.0817544
0.0817196
0.0817326
0.0817638
0.0817868
0.0817944
0.081792
0.0817785
0.0817871
0.0818611
0.0821003
0.0819454
0.0817707
0.0817997
0.0818335
0.0818364
0.0818499
0.0818475
0.0818594
0.0818753
0.0825837
0.0824748
0.0819262
0.0859092
0.0897941
0.0910544
0.0914213
0.0912126
0.0914226
0.0907917
0.0914741
0.0912716
0.0906463
0.0891004
0.0874391
0.0882995
0.0903887
0.0919135
0.0920731
0.0920595
0.0907679
0.0896622
0.0869948
0.0886722
0.090947
0.0919718
0.0922723
0.0923398
0.0924011
0.0925556
0.0927041
0.0929813
0.0935561
0.093692
0.0930255
0.0926295
0.0925665
0.0926215
0.0927735
0.092929
0.0930774
0.0937676
0.098008
0.094145
0.0891983
0.0925941
0.0932456
0.0930051
0.0908615
0.0847627
0.082125
0.0844231
0.0885126
0.0908186
0.0918666
0.0922574
0.0924393
0.0925305
0.092608
0.0926786
0.0927359
0.0928495
0.0928799
0.0927192
0.0921702
0.091941
0.0920352
0.0921031
0.092102
0.0920002
0.0917503
0.0912627
0.0907105
0.0904364
0.0905867
0.0908655
0.0913263
0.0920837
0.0926018
0.0924393
0.0921964
0.0923683
0.0927868
0.0931159
0.0928467
0.0924173
0.0925452
0.0929283
0.0929114
0.0930572
0.093108
0.0932186
0.0932223
0.0931717
0.0933793
0.0936161
0.0935984
0.0935461
0.0936331
0.0938619
0.0940256
0.0934675
0.0932213
0.0930827
0.0930981
0.0931168
0.093023
0.0928279
0.0926683
0.0925893
0.0925696
0.0925264
0.0918756
0.0995436
0.0871632
0.081811
0.0918608
0.0928864
0.0925954
0.0926106
0.0926491
0.0926655
0.0926635
0.0926409
0.0926216
0.0926037
0.0925068
0.0916759
0.0901306
0.090374
0.0917986
0.0924099
0.0925443
0.0925666
0.0925427
0.0915772
0.0910063
0.0928312
0.0926753
0.0926411
0.0926704
0.092739
0.0929545
0.0933365
0.0931907
0.0928431
0.0927018
0.0926875
0.0927031
0.0927898
0.0929747
0.0931115
0.092963
0.0926274
0.0924662
0.0923653
0.0922765
0.0922663
0.103449
0.0938419
0.11303
0.0949893
0.0913826
0.0923197
0.092533
0.0926028
0.0926288
0.0926348
0.0926383
0.0926389
0.0926455
0.0926483
0.0926693
0.0926789
0.0926874
0.0926645
0.0926521
0.092638
0.0925949
0.0925149
0.0924262
0.0924454
0.0925209
0.0925783
0.0926038
0.0926124
0.092609
0.0925958
0.0925802
0.0926163
0.0928044
0.0928354
0.0924219
0.0925544
0.0926473
0.0927135
0.0927329
0.0927093
0.0926877
0.0927417
0.0930545
0.093323
0.0926587
0.0981918
0.101747
0.102637
0.102696
0.102365
0.101473
0.100733
0.100938
0.101051
0.100843
0.0995697
0.0969704
0.094205
0.096399
0.100058
0.102496
0.103937
0.104841
0.101603
0.0972837
0.0970364
0.0998626
0.102638
0.103509
0.102763
0.102771
0.103269
0.104143
0.104406
0.103766
0.103061
0.103096
0.103264
0.103454
0.10353
0.103563
0.103704
0.103888
0.10416
0.108103
0.107128
0.104338
0.104692
0.10496
0.105111
0.103161
0.0967505
0.0914456
0.0927158
0.0951025
0.098018
0.100646
0.102232
0.102937
0.103165
0.10327
0.103289
0.103413
0.103524
0.103586
0.1034
0.102947
0.10259
0.102501
0.102617
0.102735
0.102756
0.102635
0.102419
0.102166
0.10202
0.101854
0.101882
0.102274
0.103063
0.103487
0.103268
0.102897
0.102995
0.103367
0.103481
0.103093
0.102653
0.103534
0.103501
0.10437
0.104537
0.104767
0.104891
0.104968
0.104854
0.104462
0.104015
0.103868
0.103817
0.103801
0.103828
0.103889
0.104238
0.104622
0.104665
0.104187
0.103862
0.103634
0.103463
0.103334
0.103285
0.103351
0.103657
0.104647
0.108552
0.104893
0.0932874
0.102796
0.103472
0.103342
0.103397
0.103528
0.103494
0.1034
0.103366
0.103374
0.103373
0.103322
0.103037
0.101732
0.100758
0.10204
0.103017
0.103311
0.103373
0.10327
0.102727
0.102574
0.103
0.103172
0.103214
0.103206
0.10328
0.103932
0.105172
0.105555
0.104072
0.103595
0.103477
0.103486
0.103546
0.103767
0.104165
0.104184
0.1038
0.103335
0.103204
0.103097
0.103082
0.119695
0.102088
0.112152
0.0989335
0.102044
0.103132
0.103342
0.103403
0.103413
0.103407
0.10341
0.103418
0.103425
0.103446
0.103482
0.103553
0.103566
0.103537
0.10346
0.103311
0.10316
0.103113
0.103174
0.103277
0.103355
0.103393
0.103409
0.103418
0.103421
0.103424
0.103424
0.103435
0.103529
0.10364
0.103316
0.103378
0.103431
0.103457
0.10349
0.103512
0.103599
0.103745
0.104016
0.103924
0.103558
0.110487
0.112494
0.113242
0.113115
0.112865
0.111606
0.111278
0.111572
0.112782
0.112868
0.112498
0.1101
0.104418
0.101658
0.105743
0.115806
0.122421
0.120385
0.116177
0.111124
0.108108
0.109242
0.111469
0.125455
0.111364
0.112026
0.117648
0.118659
0.115206
0.112231
0.112209
0.112758
0.113671
0.114077
0.114233
0.114419
0.114794
0.115324
0.117242
0.120392
0.119462
0.116599
0.115602
0.115166
0.114844
0.114235
0.111367
0.10749
0.106539
0.106722
0.107885
0.109616
0.111214
0.111736
0.111979
0.111486
0.111501
0.11228
0.113347
0.113981
0.113995
0.113826
0.113505
0.113287
0.113286
0.113387
0.113384
0.11328
0.113372
0.11367
0.113938
0.113872
0.113668
0.11345
0.113419
0.113456
0.113395
0.11344
0.113932
0.114845
0.115176
0.114789
0.114233
0.114056
0.113774
0.114538
0.115431
0.115855
0.115603
0.115264
0.114852
0.114265
0.113948
0.113869
0.114217
0.114377
0.114507
0.114739
0.115151
0.115391
0.114864
0.114457
0.114273
0.114192
0.114143
0.114114
0.114097
0.114318
0.115202
0.116645
0.117861
0.11555
0.112064
0.114059
0.114401
0.114196
0.114183
0.114194
0.114139
0.114064
0.114046
0.114071
0.114082
0.114021
0.113723
0.11272
0.111571
0.11238
0.11354
0.113967
0.114083
0.113947
0.113642
0.113312
0.113491
0.113666
0.113788
0.113827
0.113897
0.114326
0.116593
0.117369
0.114774
0.114181
0.114175
0.1142
0.114237
0.114324
0.114568
0.115212
0.115782
0.115127
0.114648
0.11411
0.117283
0.11961
0.104545
0.115008
0.108931
0.114106
0.114232
0.114197
0.114142
0.11402
0.113947
0.113977
0.114074
0.114129
0.114191
0.114262
0.114341
0.114375
0.114344
0.114258
0.114047
0.113909
0.113958
0.114068
0.11413
0.114165
0.114179
0.11419
0.114195
0.114199
0.114202
0.11421
0.11424
0.114297
0.114297
0.114213
0.114203
0.114202
0.114203
0.114219
0.114278
0.11451
0.114982
0.115578
0.11508
0.114252
0.121971
0.123093
0.12287
0.122205
0.121247
0.120203
0.120368
0.122651
0.124168
0.125033
0.124746
0.122775
0.117974
0.111607
0.113463
0.124545
0.13405
0.13088
0.126279
0.123761
0.122024
0.11984
0.117397
0.133835
0.133785
0.126013
0.127576
0.12882
0.125582
0.122397
0.121394
0.12205
0.123693
0.124647
0.125099
0.125388
0.125862
0.126544
0.127816
0.130258
0.130824
0.127125
0.124343
0.124029
0.124274
0.12439
0.124037
0.122844
0.122027
0.121866
0.121972
0.122165
0.121526
0.119513
0.117686
0.117683
0.119029
0.120884
0.122449
0.123451
0.123934
0.123832
0.123391
0.122887
0.123059
0.123555
0.124023
0.124209
0.124261
0.124185
0.124231
0.124355
0.124372
0.124301
0.124361
0.124395
0.124413
0.124502
0.125119
0.125872
0.125783
0.125357
0.125088
0.124908
0.124681
0.124705
0.125076
0.125179
0.12502
0.124875
0.124579
0.124351
0.124066
0.124473
0.125027
0.125945
0.126706
0.126944
0.126737
0.125932
0.125173
0.124965
0.124896
0.124913
0.124966
0.125096
0.125359
0.12585
0.126735
0.127449
0.127164
0.125908
0.124805
0.12513
0.125371
0.124846
0.12465
0.124817
0.124801
0.124753
0.124717
0.1247
0.124663
0.124517
0.124165
0.123519
0.122636
0.12285
0.123771
0.124461
0.12467
0.124677
0.124398
0.123962
0.123613
0.123824
0.124633
0.125134
0.125367
0.125839
0.128003
0.128443
0.125478
0.125007
0.124991
0.124991
0.125003
0.125081
0.125498
0.126508
0.127942
0.127683
0.126616
0.125993
0.128472
0.114782
0.10818
0.124207
0.12512
0.125779
0.125429
0.124575
0.12335
0.123159
0.123963
0.124557
0.124773
0.124866
0.124909
0.124929
0.124932
0.12494
0.124963
0.124929
0.12482
0.124762
0.12483
0.124883
0.124905
0.124911
0.124926
0.124939
0.124943
0.124947
0.124954
0.124985
0.125028
0.12506
0.125035
0.124983
0.124962
0.124957
0.124957
0.124967
0.124994
0.125117
0.125613
0.126471
0.125247
0.12496
0.134259
0.133561
0.131327
0.128317
0.122966
0.122425
0.126663
0.135205
0.139504
0.139792
0.138257
0.134821
0.130688
0.127554
0.129582
0.136442
0.139934
0.136718
0.134374
0.133991
0.134028
0.132913
0.131843
0.136878
0.127478
0.124304
0.132909
0.137596
0.135014
0.132359
0.130986
0.131558
0.133046
0.134935
0.135629
0.136123
0.136321
0.136776
0.137788
0.139289
0.13885
0.135265
0.133101
0.133249
0.133743
0.134067
0.134533
0.135267
0.135907
0.136123
0.136153
0.135945
0.134007
0.130499
0.127992
0.129432
0.130991
0.132017
0.132904
0.1336
0.133837
0.133411
0.132093
0.130905
0.131407
0.133126
0.134521
0.134765
0.13457
0.134307
0.134235
0.134388
0.134502
0.134968
0.13543
0.135739
0.13582
0.135914
0.136054
0.136059
0.135873
0.135734
0.13565
0.135615
0.13562
0.135678
0.135676
0.135638
0.135579
0.135493
0.135437
0.135317
0.135276
0.135338
0.135866
0.137386
0.139288
0.138779
0.136991
0.135637
0.135469
0.135475
0.135656
0.13578
0.136074
0.136418
0.136652
0.13668
0.136614
0.136514
0.136428
0.13614
0.135856
0.135912
0.135921
0.135468
0.135434
0.135496
0.135517
0.135465
0.135321
0.135174
0.135091
0.135038
0.134962
0.134722
0.134104
0.133562
0.133819
0.134559
0.134978
0.13515
0.134973
0.134361
0.133696
0.133773
0.13541
0.136778
0.137305
0.137482
0.138317
0.138201
0.13669
0.13631
0.135932
0.135798
0.135862
0.136347
0.137438
0.138474
0.138995
0.137809
0.136539
0.136227
0.137885
0.133313
0.126327
0.136371
0.136273
0.136202
0.135842
0.135022
0.134627
0.135165
0.13552
0.13564
0.135655
0.135658
0.135608
0.135549
0.135501
0.135499
0.135518
0.135547
0.135573
0.13561
0.135664
0.13568
0.135657
0.135614
0.13565
0.135659
0.135669
0.135684
0.135745
0.135864
0.135928
0.135879
0.135788
0.135724
0.135708
0.135688
0.135691
0.135688
0.135707
0.135772
0.135945
0.136037
0.135953
0.135779
0.144897
0.143471
0.139591
0.130302
0.123819
0.125685
0.136848
0.148028
0.151798
0.150229
0.147577
0.144765
0.142536
0.142465
0.14447
0.146549
0.146
0.144272
0.142928
0.142842
0.142524
0.141936
0.150574
0.137008
0.121764
0.132501
0.147916
0.146983
0.143997
0.142001
0.140982
0.139985
0.141385
0.143586
0.145693
0.146498
0.147148
0.147457
0.147623
0.147494
0.146748
0.144728
0.142916
0.14265
0.143341
0.144452
0.145547
0.146425
0.147097
0.147841
0.148238
0.147324
0.144646
0.140219
0.138051
0.13933
0.141472
0.14278
0.143395
0.143914
0.144117
0.143994
0.143453
0.142851
0.14321
0.144145
0.144819
0.145071
0.145043
0.144876
0.144702
0.144268
0.143694
0.145436
0.146629
0.14682
0.146729
0.146699
0.146573
0.146457
0.146375
0.146345
0.146337
0.146336
0.146378
0.146404
0.146407
0.146419
0.146546
0.146814
0.146908
0.146625
0.146367
0.146157
0.146067
0.146652
0.147785
0.146905
0.145925
0.145851
0.146136
0.146714
0.147029
0.147408
0.147365
0.147335
0.147134
0.146951
0.146887
0.146893
0.146891
0.146748
0.14657
0.14651
0.146459
0.146222
0.14614
0.146247
0.146225
0.14619
0.146039
0.145823
0.145598
0.145566
0.145678
0.14559
0.145112
0.144187
0.144101
0.144889
0.145524
0.1458
0.145769
0.145251
0.144635
0.14447
0.1456
0.14691
0.147802
0.147722
0.147747
0.147746
0.147873
0.147848
0.14729
0.147053
0.147195
0.14772
0.148667
0.149164
0.148533
0.147216
0.146544
0.14649
0.146724
0.146497
0.145635
0.146588
0.146489
0.146437
0.146416
0.146484
0.146639
0.146847
0.14671
0.146513
0.146417
0.1463
0.146131
0.145936
0.145888
0.14601
0.14614
0.146231
0.146288
0.146335
0.146375
0.14638
0.146325
0.146281
0.146311
0.146386
0.146379
0.146428
0.146527
0.14664
0.146653
0.146584
0.146488
0.146454
0.146427
0.146438
0.146409
0.146405
0.14642
0.146481
0.146618
0.14677
0.146616
0.146541
0.155567
0.154032
0.149952
0.144769
0.142159
0.147376
0.158443
0.159708
0.158158
0.156859
0.15535
0.153251
0.151846
0.152939
0.155189
0.156403
0.156203
0.154778
0.151269
0.147418
0.146143
0.152075
0.159769
0.1413
0.126799
0.152328
0.157707
0.156127
0.154789
0.153839
0.151883
0.147065
0.147733
0.150755
0.155241
0.157074
0.157327
0.15565
0.153958
0.153447
0.153115
0.153322
0.153779
0.154677
0.155518
0.156142
0.156486
0.156489
0.156219
0.15634
0.156712
0.156716
0.155691
0.153207
0.151341
0.151549
0.15232
0.152381
0.151981
0.152299
0.15317
0.154188
0.15456
0.154316
0.1542
0.154507
0.154982
0.155261
0.155431
0.155365
0.15519
0.153662
0.151641
0.154466
0.157751
0.15747
0.157559
0.157306
0.157222
0.15711
0.157065
0.15706
0.157069
0.157207
0.157464
0.157448
0.157432
0.157812
0.158234
0.15842
0.157933
0.157382
0.157067
0.156949
0.156861
0.157675
0.158338
0.15773
0.156903
0.157358
0.158345
0.159757
0.160526
0.160003
0.158563
0.157643
0.157638
0.157719
0.157843
0.157818
0.157653
0.157393
0.157199
0.15711
0.157064
0.157022
0.157002
0.156879
0.15697
0.156892
0.156837
0.156614
0.15629
0.156037
0.155677
0.155321
0.154947
0.155037
0.155408
0.156022
0.156432
0.156619
0.156711
0.156703
0.156559
0.156314
0.15623
0.15664
0.157298
0.157792
0.157568
0.157502
0.158555
0.15936
0.159497
0.159835
0.159951
0.159552
0.159458
0.158764
0.157829
0.157201
0.157031
0.157058
0.157204
0.157351
0.157344
0.157407
0.157246
0.157126
0.157112
0.157121
0.157428
0.157842
0.157765
0.157186
0.156871
0.156647
0.15643
0.156221
0.156226
0.15644
0.156701
0.156853
0.156929
0.156974
0.157008
0.157027
0.157036
0.157028
0.157068
0.157073
0.157046
0.157236
0.157358
0.157341
0.157282
0.157228
0.157196
0.157171
0.157128
0.157095
0.15709
0.157096
0.157114
0.1572
0.157367
0.157378
0.157347
0.157212
0.163197
0.162484
0.161546
0.164226
0.169119
0.171414
0.170614
0.168282
0.166789
0.165363
0.1633
0.16099
0.160528
0.162782
0.165575
0.167005
0.166038
0.163085
0.159428
0.156791
0.157003
0.16346
0.171021
0.168218
0.163318
0.167463
0.167343
0.167138
0.166818
0.165803
0.16004
0.152437
0.152865
0.158072
0.164111
0.16524
0.163606
0.160585
0.159465
0.15983
0.161992
0.164128
0.165513
0.166405
0.16675
0.16706
0.166666
0.164591
0.164028
0.165471
0.166464
0.16701
0.167134
0.166888
0.166217
0.165637
0.165059
0.163427
0.161484
0.161702
0.163171
0.164576
0.165051
0.164875
0.164607
0.164746
0.164987
0.165216
0.165211
0.165127
0.164627
0.161807
0.156936
0.161388