/*--------------------------------*- C++ -*----------------------------------*\
  =========                 |
  \\      /  F ield         | OpenFOAM: The Open Source CFD Toolbox
   \\    /   O peration     | Website:  https://openfoam.org
    \\  /    A nd           | Version:  8
     \\/     M anipulation  |
\*---------------------------------------------------------------------------*/
FoamFile
{
    version     2.0;
    format      ascii;
    class       volScalarField;
    location    "600";
    object      p;
}
// * * * * * * * * * * * * * * * * * * * * * * * * * * * * * * * * * * * * * //

dimensions      [1 -1 -2 0 0 0 0];

internalField   nonuniform List<scalar> 
20000
(
-396008
-396008
-396008
-396008
-396007
-396005
-396003
-395998
-395988
-395973
-395961
-395955
-395954
-395956
-395953
-395945
-395937
-395936
-395938
-395937
-395934
-395926
-395910
-395890
-395871
-395858
-395851
-395847
-395845
-395843
-395841
-395837
-395831
-395819
-395801
-395775
-395745
-395717
-395695
-395680
-395668
-395658
-395647
-395634
-395619
-395602
-395589
-395580
-395575
-395571
-395566
-395559
-395549
-395538
-395529
-395526
-395525
-395523
-395518
-395496
-395432
-395341
-395283
-395266
-395263
-395261
-395260
-395259
-395256
-395252
-395247
-395237
-395216
-395172
-395096
-394996
-394896
-394820
-394782
-394768
-394764
-394763
-394763
-394762
-394761
-394760
-394757
-394750
-394738
-394722
-394708
-394695
-394682
-394663
-394635
-394601
-394574
-394561
-394556
-394553
-394551
-394546
-394536
-394520
-394500
-394481
-394466
-394456
-394449
-394443
-394436
-394429
-394425
-394425
-394426
-394428
-394429
-394429
-394429
-394428
-394426
-394422
-394418
-394413
-394409
-394404
-394396
-394379
-394349
-394309
-394271
-394247
-394234
-394227
-394221
-394215
-394208
-394203
-394198
-394190
-394174
-394147
-394117
-394096
-394084
-394078
-394074
-394070
-394064
-394054
-394039
-394021
-394006
-393997
-393993
-393990
-393989
-393989
-393988
-393988
-393988
-393988
-393989
-393990
-393991
-393993
-393995
-393997
-394001
-394003
-394005
-394007
-394010
-394013
-394016
-394018
-394019
-394019
-394019
-394019
-394020
-394021
-394022
-394022
-394022
-394021
-394022
-394022
-394022
-394022
-394021
-394021
-394020
-394019
-394018
-394018
-394018
-394017
-394017
-394017
-400949
-400949
-400949
-400948
-400947
-400947
-400946
-400944
-400936
-400920
-400905
-400896
-400893
-400898
-400898
-400890
-400884
-400883
-400883
-400881
-400877
-400868
-400853
-400834
-400815
-400802
-400794
-400790
-400787
-400785
-400782
-400777
-400769
-400757
-400739
-400716
-400687
-400658
-400634
-400618
-400607
-400599
-400592
-400584
-400573
-400559
-400543
-400529
-400520
-400514
-400507
-400499
-400489
-400479
-400472
-400468
-400465
-400462
-400455
-400434
-400376
-400292
-400233
-400212
-400207
-400204
-400202
-400199
-400196
-400192
-400188
-400181
-400167
-400134
-400066
-399960
-399846
-399764
-399725
-399712
-399709
-399709
-399705
-399707
-399705
-399702
-399697
-399689
-399676
-399661
-399646
-399632
-399616
-399596
-399572
-399544
-399520
-399506
-399500
-399497
-399494
-399489
-399480
-399466
-399449
-399430
-399414
-399400
-399390
-399381
-399372
-399366
-399365
-399366
-399368
-399370
-399371
-399372
-399372
-399371
-399368
-399364
-399359
-399355
-399352
-399347
-399340
-399323
-399292
-399248
-399208
-399185
-399174
-399169
-399166
-399161
-399154
-399147
-399140
-399129
-399113
-399087
-399059
-399038
-399026
-399020
-399016
-399012
-399005
-398995
-398981
-398966
-398953
-398943
-398937
-398934
-398933
-398932
-398932
-398932
-398932
-398932
-398932
-398933
-398934
-398935
-398937
-398940
-398943
-398945
-398948
-398950
-398952
-398955
-398958
-398960
-398961
-398962
-398962
-398962
-398963
-398963
-398964
-398964
-398964
-398965
-398965
-398964
-398964
-398964
-398964
-398963
-398962
-398961
-398961
-398961
-398960
-398960
-398960
-398960
-405925
-405925
-405925
-405924
-405924
-405924
-405926
-405927
-405922
-405908
-405888
-405873
-405866
-405872
-405873
-405870
-405870
-405869
-405866
-405862
-405857
-405849
-405835
-405817
-405800
-405787
-405777
-405771
-405766
-405762
-405757
-405750
-405742
-405730
-405714
-405690
-405661
-405629
-405604
-405588
-405579
-405575
-405573
-405571
-405567
-405558
-405543
-405526
-405510
-405497
-405488
-405480
-405472
-405463
-405454
-405446
-405438
-405432
-405424
-405404
-405359
-405292
-405235
-405207
-405197
-405190
-405184
-405179
-405173
-405168
-405164
-405158
-405147
-405120
-405062
-404965
-404852
-404763
-404716
-404699
-404693
-404692
-404687
-404688
-404684
-404679
-404671
-404661
-404650
-404638
-404624
-404609
-404591
-404570
-404546
-404521
-404501
-404489
-404482
-404478
-404474
-404469
-404462
-404452
-404438
-404420
-404399
-404379
-404364
-404352
-404344
-404339
-404341
-404345
-404349
-404351
-404352
-404352
-404352
-404351
-404348
-404344
-404339
-404335
-404332
-404328
-404321
-404305
-404275
-404231
-404190
-404166
-404155
-404150
-404147
-404143
-404137
-404128
-404118
-404107
-404093
-404072
-404044
-404021
-404007
-404000
-403996
-403990
-403983
-403973
-403962
-403949
-403937
-403926
-403920
-403916
-403913
-403912
-403911
-403912
-403912
-403913
-403914
-403914
-403915
-403916
-403918
-403921
-403923
-403925
-403927
-403929
-403932
-403935
-403938
-403940
-403941
-403942
-403942
-403943
-403943
-403944
-403944
-403944
-403944
-403945
-403944
-403944
-403944
-403944
-403944
-403943
-403942
-403942
-403941
-403941
-403940
-403940
-403939
-403939
-410936
-410936
-410935
-410934
-410934
-410935
-410939
-410944
-410944
-410933
-410912
-410892
-410882
-410880
-410879
-410883
-410889
-410888
-410882
-410878
-410872
-410862
-410849
-410835
-410823
-410811
-410800
-410788
-410777
-410766
-410758
-410751
-410745
-410736
-410719
-410691
-410656
-410625
-410603
-410591
-410588
-410589
-410591
-410593
-410593
-410589
-410579
-410561
-410540
-410522
-410510
-410503
-410497
-410488
-410475
-410461
-410448
-410438
-410428
-410408
-410370
-410313
-410264
-410238
-410226
-410218
-410209
-410200
-410192
-410184
-410177
-410169
-410153
-410121
-410061
-409977
-409887
-409809
-409757
-409730
-409718
-409713
-409709
-409707
-409702
-409695
-409684
-409673
-409662
-409652
-409641
-409627
-409610
-409587
-409560
-409534
-409517
-409507
-409501
-409497
-409492
-409486
-409480
-409472
-409461
-409442
-409417
-409393
-409377
-409365
-409353
-409345
-409355
-409365
-409369
-409370
-409370
-409370
-409369
-409368
-409365
-409361
-409356
-409352
-409349
-409346
-409339
-409324
-409296
-409256
-409216
-409189
-409177
-409171
-409166
-409162
-409155
-409144
-409134
-409124
-409113
-409095
-409068
-409043
-409027
-409019
-409013
-409007
-409000
-408991
-408982
-408970
-408956
-408945
-408937
-408933
-408930
-408928
-408927
-408928
-408930
-408931
-408932
-408933
-408933
-408935
-408936
-408938
-408941
-408943
-408945
-408947
-408950
-408954
-408956
-408958
-408959
-408959
-408960
-408961
-408961
-408961
-408961
-408961
-408962
-408962
-408961
-408961
-408961
-408961
-408961
-408961
-408960
-408959
-408958
-408958
-408957
-408956
-408956
-408956
-415984
-415983
-415981
-415980
-415977
-415976
-415977
-415982
-415984
-415978
-415967
-415955
-415949
-415939
-415933
-415936
-415940
-415936
-415927
-415924
-415919
-415908
-415898
-415890
-415881
-415871
-415858
-415840
-415819
-415801
-415791
-415786
-415783
-415774
-415754
-415719
-415682
-415656
-415641
-415632
-415634
-415642
-415647
-415650
-415652
-415651
-415645
-415628
-415606
-415585
-415572
-415564
-415558
-415548
-415534
-415516
-415499
-415486
-415473
-415452
-415409
-415352
-415309
-415290
-415283
-415277
-415269
-415259
-415250
-415240
-415229
-415215
-415191
-415146
-415078
-415003
-414934
-414877
-414832
-414801
-414784
-414775
-414769
-414764
-414757
-414748
-414736
-414724
-414713
-414703
-414692
-414679
-414662
-414637
-414609
-414585
-414569
-414561
-414556
-414550
-414544
-414538
-414531
-414522
-414509
-414489
-414466
-414449
-414437
-414425
-414405
-414390
-414411
-414423
-414427
-414427
-414426
-414425
-414423
-414422
-414419
-414415
-414410
-414407
-414404
-414399
-414391
-414375
-414347
-414310
-414275
-414252
-414241
-414234
-414227
-414220
-414211
-414200
-414189
-414179
-414167
-414150
-414127
-414104
-414087
-414077
-414069
-414062
-414054
-414046
-414037
-414025
-414010
-413997
-413989
-413985
-413981
-413977
-413978
-413981
-413984
-413986
-413987
-413988
-413990
-413991
-413993
-413995
-413997
-414000
-414002
-414004
-414007
-414010
-414012
-414013
-414013
-414014
-414014
-414015
-414016
-414016
-414016
-414016
-414017
-414017
-414016
-414016
-414016
-414016
-414016
-414015
-414014
-414013
-414011
-414011
-414010
-414010
-414010
-414010
-421072
-421070
-421066
-421061
-421055
-421047
-421039
-421033
-421031
-421032
-421036
-421042
-421046
-421038
-421031
-421026
-421020
-421011
-421002
-420999
-420997
-420993
-420988
-420984
-420977
-420966
-420949
-420926
-420900
-420882
-420872
-420868
-420864
-420854
-420830
-420793
-420760
-420739
-420726
-420716
-420721
-420734
-420741
-420743
-420745
-420746
-420743
-420731
-420710
-420689
-420673
-420661
-420652
-420642
-420627
-420609
-420590
-420575
-420558
-420529
-420480
-420425
-420390
-420375
-420369
-420364
-420358
-420351
-420341
-420330
-420313
-420289
-420248
-420185
-420115
-420056
-420011
-419974
-419940
-419911
-419891
-419879
-419869
-419861
-419850
-419838
-419825
-419812
-419800
-419789
-419778
-419765
-419747
-419723
-419695
-419673
-419659
-419651
-419647
-419641
-419634
-419626
-419616
-419604
-419590
-419573
-419557
-419546
-419539
-419532
-419512
-419496
-419512
-419524
-419525
-419523
-419521
-419518
-419515
-419512
-419509
-419504
-419500
-419496
-419492
-419488
-419478
-419461
-419434
-419399
-419368
-419349
-419341
-419335
-419326
-419320
-419309
-419295
-419281
-419269
-419255
-419239
-419222
-419204
-419187
-419174
-419162
-419152
-419143
-419135
-419124
-419110
-419095
-419085
-419079
-419074
-419071
-419060
-419068
-419073
-419076
-419078
-419081
-419083
-419085
-419086
-419088
-419090
-419092
-419093
-419095
-419098
-419101
-419103
-419105
-419105
-419105
-419106
-419106
-419107
-419107
-419108
-419108
-419109
-419109
-419109
-419109
-419108
-419108
-419108
-419108
-419107
-419105
-419104
-419103
-419102
-419102
-419101
-419101
-419102
-426201
-426195
-426188
-426181
-426173
-426165
-426153
-426140
-426133
-426136
-426148
-426165
-426174
-426170
-426162
-426150
-426133
-426119
-426112
-426108
-426108
-426112
-426115
-426113
-426106
-426093
-426073
-426047
-426024
-426009
-426001
-425996
-425990
-425979
-425956
-425921
-425888
-425869
-425858
-425851
-425857
-425867
-425869
-425868
-425869
-425872
-425875
-425871
-425858
-425838
-425817
-425800
-425786
-425772
-425754
-425733
-425714
-425696
-425673
-425638
-425589
-425543
-425514
-425499
-425491
-425486
-425481
-425474
-425461
-425438
-425403
-425356
-425299
-425237
-425184
-425149
-425125
-425105
-425081
-425057
-425037
-425022
-425010
-424998
-424985
-424970
-424955
-424940
-424926
-424912
-424899
-424885
-424868
-424848
-424823
-424802
-424789
-424782
-424778
-424773
-424764
-424753
-424741
-424729
-424716
-424703
-424689
-424678
-424672
-424670
-424666
-424664
-424671
-424673
-424669
-424663
-424657
-424651
-424646
-424641
-424636
-424630
-424624
-424619
-424616
-424613
-424605
-424591
-424564
-424528
-424495
-424477
-424470
-424467
-424460
-424456
-424446
-424429
-424409
-424392
-424377
-424366
-424355
-424341
-424324
-424303
-424283
-424268
-424259
-424252
-424242
-424231
-424221
-424214
-424210
-424206
-424203
-424187
-424199
-424206
-424209
-424211
-424214
-424216
-424218
-424218
-424219
-424221
-424222
-424223
-424225
-424227
-424229
-424232
-424234
-424235
-424235
-424235
-424236
-424236
-424236
-424237
-424237
-424238
-424238
-424238
-424238
-424238
-424237
-424237
-424236
-424236
-424235
-424234
-424233
-424232
-424232
-424232
-424231
-424232
-431362
-431355
-431347
-431340
-431334
-431329
-431322
-431312
-431304
-431304
-431313
-431326
-431335
-431334
-431323
-431303
-431278
-431263
-431261
-431260
-431259
-431264
-431267
-431262
-431254
-431241
-431223
-431205
-431190
-431180
-431173
-431166
-431158
-431145
-431121
-431087
-431057
-431041
-431036
-431035
-431035
-431032
-431029
-431028
-431028
-431030
-431037
-431042
-431037
-431023
-431002
-430979
-430957
-430935
-430913
-430892
-430872
-430850
-430821
-430784
-430746
-430714
-430690
-430672
-430657
-430648
-430638
-430623
-430595
-430551
-430496
-430442
-430396
-430357
-430324
-430300
-430283
-430267
-430250
-430232
-430215
-430201
-430188
-430176
-430162
-430146
-430128
-430109
-430090
-430073
-430057
-430044
-430030
-430013
-429992
-429972
-429959
-429953
-429948
-429943
-429934
-429922
-429909
-429897
-429886
-429873
-429859
-429848
-429842
-429841
-429851
-429858
-429858
-429852
-429847
-429840
-429833
-429826
-429819
-429812
-429803
-429794
-429786
-429781
-429777
-429774
-429769
-429757
-429731
-429693
-429660
-429642
-429634
-429631
-429630
-429625
-429615
-429594
-429569
-429550
-429537
-429529
-429521
-429509
-429488
-429459
-429435
-429420
-429413
-429408
-429404
-429397
-429389
-429384
-429381
-429378
-429382
-429368
-429382
-429389
-429390
-429388
-429387
-429386
-429386
-429386
-429387
-429388
-429390
-429391
-429392
-429393
-429395
-429397
-429399
-429400
-429401
-429402
-429402
-429402
-429403
-429403
-429404
-429404
-429405
-429405
-429405
-429404
-429404
-429404
-429403
-429403
-429402
-429402
-429401
-429400
-429400
-429400
-429400
-429400
-436550
-436548
-436544
-436538
-436533
-436529
-436525
-436517
-436509
-436506
-436510
-436517
-436525
-436524
-436508
-436480
-436454
-436446
-436448
-436452
-436453
-436452
-436445
-436434
-436430
-436423
-436411
-436403
-436400
-436397
-436392
-436382
-436368
-436348
-436318
-436284
-436261
-436251
-436249
-436251
-436244
-436232
-436230
-436228
-436224
-436223
-436226
-436231
-436229
-436221
-436206
-436183
-436157
-436132
-436112
-436093
-436074
-436049
-436017
-435981
-435949
-435925
-435905
-435886
-435866
-435846
-435821
-435789
-435745
-435693
-435643
-435605
-435578
-435553
-435528
-435504
-435485
-435468
-435452
-435436
-435421
-435407
-435394
-435383
-435373
-435361
-435346
-435326
-435302
-435278
-435260
-435246
-435234
-435219
-435199
-435180
-435168
-435160
-435153
-435147
-435141
-435132
-435120
-435107
-435094
-435080
-435067
-435056
-435050
-435050
-435059
-435058
-435051
-435051
-435049
-435045
-435040
-435036
-435030
-435024
-435014
-435001
-434989
-434981
-434974
-434969
-434965
-434954
-434932
-434898
-434867
-434847
-434837
-434832
-434833
-434826
-434810
-434785
-434762
-434747
-434736
-434729
-434724
-434712
-434689
-434657
-434634
-434621
-434615
-434612
-434608
-434605
-434599
-434594
-434594
-434597
-434609
-434603
-434613
-434614
-434610
-434604
-434599
-434595
-434594
-434593
-434593
-434594
-434595
-434595
-434596
-434597
-434599
-434600
-434602
-434603
-434604
-434605
-434606
-434606
-434607
-434607
-434608
-434608
-434608
-434609
-434608
-434608
-434608
-434608
-434608
-434607
-434607
-434607
-434606
-434605
-434605
-434606
-434606
-434606
-441776
-441778
-441778
-441776
-441772
-441766
-441759
-441750
-441741
-441735
-441735
-441738
-441743
-441744
-441729
-441701
-441679
-441674
-441677
-441679
-441681
-441678
-441668
-441647
-441655
-441657
-441647
-441643
-441646
-441649
-441647
-441639
-441623
-441596
-441559
-441524
-441504
-441497
-441496
-441497
-441489
-441479
-441476
-441470
-441462
-441454
-441446
-441442
-441440
-441436
-441425
-441406
-441384
-441365
-441350
-441337
-441321
-441299
-441269
-441232
-441196
-441168
-441146
-441126
-441104
-441074
-441039
-440998
-440954
-440909
-440868
-440836
-440813
-440793
-440772
-440750
-440728
-440708
-440691
-440675
-440658
-440643
-440630
-440621
-440613
-440605
-440596
-440582
-440559
-440532
-440507
-440490
-440476
-440459
-440440
-440421
-440407
-440399
-440393
-440388
-440384
-440379
-440369
-440354
-440336
-440320
-440306
-440298
-440294
-440294
-440299
-440289
-440277
-440285
-440286
-440284
-440282
-440279
-440275
-440269
-440259
-440245
-440230
-440218
-440209
-440202
-440197
-440188
-440171
-440144
-440114
-440093
-440080
-440072
-440067
-440056
-440037
-440015
-439998
-439986
-439977
-439970
-439966
-439958
-439937
-439905
-439878
-439864
-439858
-439854
-439850
-439848
-439846
-439846
-439848
-439859
-439872
-439869
-439868
-439862
-439856
-439849
-439844
-439841
-439840
-439839
-439837
-439837
-439837
-439837
-439838
-439839
-439840
-439841
-439843
-439844
-439845
-439845
-439846
-439847
-439847
-439848
-439848
-439849
-439849
-439849
-439849
-439850
-439850
-439849
-439849
-439849
-439849
-439848
-439848
-439847
-439847
-439847
-439847
-439848
-447044
-447048
-447051
-447053
-447051
-447043
-447031
-447017
-447004
-446995
-446992
-446992
-446994
-446996
-446989
-446974
-446961
-446957
-446953
-446945
-446942
-446942
-446939
-446922
-446929
-446937
-446930
-446926
-446929
-446930
-446928
-446922
-446909
-446883
-446846
-446810
-446789
-446783
-446782
-446781
-446776
-446769
-446764
-446754
-446742
-446728
-446710
-446696
-446690
-446684
-446673
-446657
-446641
-446632
-446625
-446615
-446602
-446584
-446558
-446522
-446482
-446446
-446419
-446396
-446372
-446341
-446305
-446270
-446234
-446196
-446155
-446119
-446090
-446067
-446045
-446024
-446003
-445985
-445970
-445956
-445940
-445923
-445907
-445897
-445889
-445883
-445876
-445866
-445848
-445822
-445792
-445767
-445746
-445726
-445707
-445689
-445675
-445669
-445666
-445665
-445663
-445658
-445647
-445630
-445609
-445592
-445582
-445577
-445575
-445575
-445576
-445570
-445558
-445562
-445563
-445562
-445561
-445558
-445554
-445545
-445533
-445519
-445505
-445493
-445482
-445475
-445469
-445462
-445448
-445426
-445397
-445374
-445358
-445347
-445336
-445324
-445308
-445292
-445278
-445266
-445258
-445252
-445248
-445240
-445223
-445193
-445161
-445143
-445136
-445132
-445129
-445128
-445128
-445130
-445131
-445146
-445150
-445151
-445141
-445136
-445130
-445125
-445123
-445122
-445120
-445119
-445117
-445117
-445116
-445116
-445117
-445118
-445119
-445120
-445121
-445121
-445122
-445123
-445124
-445124
-445124
-445125
-445125
-445125
-445125
-445126
-445126
-445127
-445127
-445127
-445127
-445127
-445127
-445127
-445127
-445127
-445127
-445126
-445127
-445127
-452352
-452356
-452361
-452366
-452369
-452359
-452340
-452317
-452300
-452291
-452287
-452286
-452284
-452281
-452281
-452285
-452287
-452284
-452273
-452256
-452246
-452244
-452247
-452253
-452257
-452261
-452256
-452251
-452247
-452241
-452236
-452230
-452218
-452198
-452171
-452141
-452118
-452109
-452108
-452108
-452102
-452096
-452089
-452078
-452061
-452041
-452019
-452000
-451988
-451977
-451962
-451946
-451936
-451931
-451926
-451917
-451905
-451889
-451866
-451832
-451792
-451755
-451727
-451707
-451685
-451656
-451623
-451588
-451554
-451515
-451472
-451433
-451403
-451379
-451356
-451333
-451313
-451297
-451286
-451276
-451263
-451244
-451223
-451208
-451199
-451195
-451190
-451181
-451163
-451134
-451101
-451072
-451048
-451027
-451009
-450993
-450981
-450977
-450977
-450977
-450974
-450967
-450953
-450934
-450917
-450905
-450898
-450896
-450896
-450896
-450895
-450889
-450881
-450879
-450878
-450877
-450876
-450873
-450866
-450853
-450839
-450827
-450817
-450807
-450796
-450786
-450779
-450772
-450760
-450741
-450715
-450690
-450671
-450657
-450646
-450636
-450623
-450609
-450595
-450584
-450577
-450572
-450566
-450557
-450541
-450512
-450481
-450461
-450453
-450450
-450449
-450448
-450447
-450447
-450447
-450446
-450437
-450450
-450447
-450445
-450439
-450437
-450437
-450435
-450434
-450433
-450432
-450432
-450432
-450432
-450433
-450434
-450435
-450435
-450436
-450436
-450437
-450437
-450438
-450438
-450438
-450439
-450439
-450439
-450438
-450439
-450439
-450440
-450441
-450441
-450441
-450440
-450440
-450441
-450443
-450444
-450445
-450445
-450445
-450444
-457700
-457701
-457701
-457705
-457706
-457696
-457675
-457656
-457645
-457639
-457635
-457629
-457620
-457612
-457614
-457629
-457640
-457636
-457622
-457605
-457591
-457584
-457586
-457609
-457614
-457607
-457605
-457604
-457593
-457579
-457572
-457568
-457559
-457545
-457526
-457506
-457487
-457477
-457473
-457470
-457463
-457454
-457444
-457432
-457414
-457392
-457370
-457351
-457335
-457318
-457299
-457283
-457273
-457267
-457259
-457250
-457238
-457222
-457200
-457169
-457132
-457097
-457070
-457050
-457031
-457008
-456977
-456939
-456894
-456845
-456798
-456768
-456752
-456734
-456713
-456690
-456668
-456650
-456639
-456630
-456617
-456595
-456569
-456550
-456541
-456536
-456531
-456519
-456498
-456470
-456441
-456416
-456394
-456373
-456356
-456344
-456336
-456333
-456330
-456326
-456318
-456305
-456291
-456279
-456269
-456261
-456255
-456252
-456252
-456251
-456249
-456243
-456236
-456233
-456231
-456229
-456227
-456221
-456210
-456196
-456183
-456176
-456170
-456162
-456150
-456138
-456128
-456118
-456106
-456088
-456066
-456042
-456021
-456006
-455995
-455986
-455975
-455963
-455951
-455941
-455934
-455928
-455919
-455906
-455887
-455861
-455834
-455817
-455810
-455809
-455809
-455808
-455805
-455802
-455799
-455781
-455766
-455787
-455794
-455794
-455790
-455787
-455785
-455784
-455784
-455784
-455784
-455784
-455785
-455786
-455786
-455787
-455787
-455787
-455788
-455788
-455789
-455789
-455790
-455790
-455790
-455790
-455790
-455790
-455790
-455790
-455791
-455791
-455791
-455791
-455791
-455790
-455789
-455790
-455792
-455794
-455797
-455798
-455797
-455796
-463094
-463082
-463067
-463056
-463048
-463040
-463036
-463038
-463040
-463036
-463026
-463013
-463001
-462992
-462993
-463006
-463012
-463004
-462991
-462981
-462971
-462959
-462954
-462971
-462965
-462960
-462972
-462971
-462953
-462938
-462936
-462940
-462936
-462924
-462908
-462894
-462884
-462879
-462874
-462867
-462856
-462842
-462828
-462814
-462798
-462779
-462759
-462741
-462725
-462706
-462684
-462666
-462650
-462638
-462628
-462618
-462606
-462592
-462574
-462548
-462516
-462481
-462451
-462428
-462408
-462384
-462349
-462299
-462241
-462189
-462156
-462142
-462136
-462122
-462104
-462086
-462064
-462044
-462029
-462014
-461992
-461963
-461934
-461915
-461905
-461900
-461895
-461884
-461868
-461849
-461828
-461805
-461779
-461755
-461737
-461728
-461724
-461720
-461714
-461705
-461693
-461681
-461672
-461667
-461663
-461657
-461649
-461642
-461638
-461636
-461635
-461631
-461626
-461622
-461620
-461617
-461612
-461604
-461591
-461578
-461568
-461562
-461558
-461552
-461544
-461534
-461522
-461508
-461493
-461474
-461453
-461431
-461410
-461393
-461380
-461370
-461361
-461353
-461343
-461334
-461326
-461317
-461303
-461285
-461265
-461244
-461225
-461211
-461205
-461205
-461205
-461202
-461197
-461192
-461187
-461171
-461157
-461170
-461177
-461179
-461176
-461173
-461171
-461170
-461170
-461171
-461172
-461173
-461174
-461175
-461176
-461176
-461176
-461176
-461176
-461177
-461177
-461178
-461178
-461178
-461179
-461179
-461179
-461179
-461179
-461179
-461180
-461180
-461180
-461179
-461179
-461177
-461176
-461174
-461173
-461174
-461175
-461177
-461176
-461175
-468540
-468512
-468474
-468441
-468423
-468423
-468439
-468455
-468461
-468453
-468440
-468428
-468418
-468411
-468409
-468410
-468409
-468400
-468391
-468383
-468376
-468369
-468366
-468354
-468330
-468345
-468366
-468359
-468341
-468333
-468336
-468343
-468341
-468332
-468321
-468312
-468308
-468307
-468303
-468294
-468280
-468263
-468247
-468231
-468215
-468197
-468180
-468167
-468154
-468136
-468114
-468089
-468066
-468045
-468031
-468021
-468011
-467999
-467985
-467964
-467937
-467904
-467872
-467844
-467816
-467780
-467730
-467670
-467615
-467578
-467560
-467555
-467553
-467540
-467524
-467509
-467491
-467470
-467449
-467426
-467397
-467365
-467339
-467322
-467312
-467307
-467303
-467296
-467287
-467276
-467258
-467231
-467196
-467166
-467150
-467143
-467140
-467136
-467130
-467121
-467113
-467107
-467103
-467100
-467094
-467086
-467075
-467066
-467059
-467057
-467057
-467055
-467052
-467048
-467043
-467037
-467029
-467018
-467007
-466998
-466991
-466985
-466981
-466976
-466971
-466964
-466955
-466941
-466924
-466905
-466884
-466862
-466840
-466820
-466803
-466791
-466782
-466775
-466767
-466758
-466749
-466738
-466721
-466703
-466685
-466669
-466654
-466642
-466634
-466633
-466632
-466629
-466625
-466620
-466613
-466603
-466596
-466598
-466600
-466600
-466599
-466596
-466594
-466593
-466594
-466596
-466597
-466598
-466599
-466599
-466600
-466600
-466600
-466601
-466601
-466602
-466602
-466603
-466604
-466604
-466604
-466604
-466605
-466605
-466605
-466605
-466605
-466605
-466605
-466604
-466604
-466602
-466599
-466596
-466592
-466589
-466587
-466586
-466585
-466584
-474027
-473996
-473943
-473894
-473871
-473875
-473893
-473905
-473903
-473893
-473881
-473872
-473865
-473861
-473858
-473855
-473848
-473838
-473827
-473815
-473808
-473813
-473821
-473796
-473765
-473786
-473799
-473790
-473778
-473773
-473771
-473769
-473768
-473767
-473766
-473764
-473761
-473757
-473750
-473741
-473729
-473714
-473698
-473683
-473668
-473651
-473636
-473625
-473615
-473601
-473579
-473552
-473523
-473498
-473480
-473467
-473455
-473441
-473427
-473409
-473386
-473355
-473322
-473291
-473256
-473211
-473154
-473096
-473050
-473021
-473005
-473000
-472996
-472988
-472976
-472962
-472945
-472926
-472905
-472880
-472851
-472824
-472801
-472785
-472775
-472771
-472768
-472762
-472755
-472743
-472723
-472689
-472648
-472619
-472606
-472601
-472599
-472596
-472591
-472586
-472582
-472578
-472574
-472567
-472557
-472546
-472535
-472526
-472520
-472517
-472518
-472516
-472513
-472508
-472501
-472492
-472481
-472470
-472461
-472456
-472451
-472445
-472440
-472435
-472431
-472424
-472416
-472407
-472395
-472382
-472367
-472349
-472324
-472297
-472271
-472252
-472240
-472232
-472224
-472216
-472207
-472199
-472183
-472168
-472154
-472138
-472124
-472110
-472096
-472090
-472094
-472094
-472091
-472085
-472078
-472071
-472067
-472066
-472064
-472062
-472060
-472058
-472057
-472057
-472057
-472058
-472058
-472059
-472059
-472059
-472060
-472060
-472061
-472061
-472061
-472061
-472061
-472061
-472062
-472064
-472066
-472067
-472067
-472067
-472067
-472066
-472066
-472066
-472066
-472066
-472064
-472060
-472056
-472051
-472048
-472045
-472042
-472040
-472038
-472037
-479498
-479483
-479446
-479402
-479384
-479384
-479389
-479389
-479381
-479369
-479360
-479352
-479347
-479346
-479347
-479342
-479328
-479311
-479300
-479287
-479275
-479280
-479291
-479279
-479260
-479265
-479268
-479263
-479255
-479247
-479236
-479225
-479225
-479233
-479241
-479243
-479240
-479235
-479228
-479220
-479209
-479195
-479181
-479171
-479160
-479146
-479132
-479118
-479106
-479091
-479068
-479041
-479017
-478996
-478978
-478960
-478943
-478925
-478906
-478887
-478861
-478829
-478801
-478779
-478750
-478707
-478652
-478592
-478542
-478510
-478490
-478474
-478462
-478460
-478458
-478445
-478428
-478412
-478396
-478378
-478355
-478330
-478309
-478293
-478285
-478281
-478277
-478270
-478260
-478243
-478214
-478175
-478138
-478115
-478104
-478100
-478100
-478097
-478094
-478091
-478087
-478082
-478074
-478063
-478050
-478038
-478028
-478021
-478015
-478011
-478014
-478012
-478009
-478004
-477998
-477989
-477978
-477967
-477958
-477952
-477946
-477941
-477935
-477929
-477925
-477919
-477914
-477908
-477903
-477900
-477894
-477882
-477862
-477828
-477788
-477757
-477738
-477728
-477720
-477712
-477705
-477698
-477688
-477677
-477664
-477648
-477633
-477617
-477599
-477589
-477598
-477602
-477598
-477590
-477583
-477576
-477572
-477569
-477566
-477563
-477560
-477559
-477558
-477558
-477558
-477557
-477556
-477556
-477556
-477556
-477557
-477557
-477557
-477558
-477557
-477556
-477554
-477553
-477554
-477556
-477560
-477563
-477564
-477564
-477562
-477561
-477561
-477562
-477563
-477561
-477556
-477550
-477544
-477541
-477539
-477538
-477537
-477536
-477535
-477534
-484932
-484935
-484933
-484931
-484932
-484931
-484924
-484910
-484894
-484882
-484877
-484875
-484867
-484863
-484860
-484850
-484830
-484811
-484804
-484796
-484781
-484777
-484781
-484779
-484773
-484770
-484769
-484767
-484761
-484752
-484739
-484727
-484730
-484741
-484751
-484754
-484753
-484750
-484744
-484736
-484724
-484710
-484700
-484694
-484688
-484678
-484665
-484649
-484630
-484607
-484582
-484563
-484548
-484533
-484516
-484497
-484477
-484454
-484427
-484397
-484363
-484332
-484315
-484305
-484289
-484260
-484213
-484148
-484083
-484038
-484009
-483985
-483968
-483970
-483974
-483963
-483945
-483929
-483917
-483904
-483887
-483868
-483851
-483840
-483835
-483830
-483821
-483807
-483786
-483757
-483724
-483692
-483667
-483650
-483641
-483636
-483636
-483636
-483634
-483629
-483623
-483615
-483602
-483588
-483573
-483562
-483555
-483550
-483547
-483545
-483548
-483546
-483543
-483539
-483534
-483527
-483519
-483509
-483497
-483488
-483479
-483471
-483463
-483457
-483453
-483450
-483448
-483446
-483446
-483446
-483442
-483434
-483422
-483396
-483355
-483314
-483285
-483267
-483255
-483246
-483237
-483230
-483228
-483221
-483207
-483191
-483175
-483163
-483151
-483144
-483147
-483147
-483141
-483131
-483123
-483117
-483113
-483108
-483104
-483100
-483096
-483094
-483094
-483094
-483093
-483092
-483091
-483090
-483090
-483090
-483090
-483090
-483090
-483090
-483089
-483087
-483086
-483085
-483085
-483086
-483088
-483090
-483091
-483090
-483089
-483088
-483087
-483087
-483085
-483081
-483077
-483073
-483070
-483069
-483068
-483067
-483067
-483069
-483070
-483070
-490383
-490389
-490416
-490464
-490494
-490496
-490482
-490460
-490438
-490427
-490427
-490429
-490422
-490407
-490393
-490376
-490357
-490345
-490341
-490340
-490338
-490336
-490335
-490333
-490325
-490315
-490308
-490305
-490302
-490295
-490285
-490277
-490279
-490289
-490298
-490300
-490297
-490289
-490278
-490270
-490263
-490258
-490254
-490249
-490245
-490240
-490229
-490210
-490184
-490159
-490142
-490131
-490120
-490105
-490088
-490068
-490044
-490015
-489980
-489942
-489907
-489882
-489867
-489858