/*--------------------------------*- C++ -*----------------------------------*\
  =========                 |
  \\      /  F ield         | OpenFOAM: The Open Source CFD Toolbox
   \\    /   O peration     | Website:  https://openfoam.org
    \\  /    A nd           | Version:  8
     \\/     M anipulation  |
\*---------------------------------------------------------------------------*/
FoamFile
{
    version     2.0;
    format      ascii;
    class       volScalarField;
    location    "600";
    object      p_rgh;
}
// * * * * * * * * * * * * * * * * * * * * * * * * * * * * * * * * * * * * * //

dimensions      [1 -1 -2 0 0 0 0];

internalField   nonuniform List<scalar> 
20000
(
-393547
-393547
-393547
-393546
-393545
-393543
-393541
-393536
-393526
-393511
-393500
-393494
-393492
-393494
-393492
-393484
-393474
-393472
-393475
-393476
-393472
-393464
-393448
-393428
-393409
-393396
-393389
-393385
-393383
-393381
-393379
-393376
-393369
-393358
-393339
-393313
-393283
-393255
-393233
-393218
-393206
-393196
-393185
-393172
-393156
-393139
-393126
-393118
-393113
-393109
-393105
-393098
-393087
-393076
-393067
-393064
-393064
-393063
-393056
-393034
-392970
-392879
-392821
-392804
-392800
-392799
-392799
-392798
-392795
-392791
-392785
-392775
-392754
-392710
-392634
-392534
-392434
-392359
-392320
-392306
-392302
-392297
-392303
-392297
-392299
-392299
-392296
-392289
-392276
-392260
-392246
-392234
-392220
-392201
-392173
-392139
-392112
-392099
-392093
-392091
-392089
-392084
-392074
-392058
-392038
-392019
-392004
-391994
-391987
-391981
-391974
-391967
-391963
-391963
-391964
-391966
-391967
-391967
-391967
-391966
-391964
-391961
-391956
-391951
-391947
-391942
-391934
-391917
-391888
-391847
-391810
-391785
-391772
-391765
-391759
-391753
-391746
-391741
-391736
-391728
-391712
-391685
-391655
-391634
-391622
-391616
-391612
-391608
-391602
-391592
-391577
-391559
-391544
-391535
-391531
-391528
-391527
-391526
-391526
-391526
-391526
-391526
-391527
-391528
-391529
-391531
-391533
-391536
-391539
-391541
-391543
-391545
-391548
-391551
-391554
-391556
-391557
-391557
-391557
-391557
-391558
-391559
-391560
-391560
-391560
-391559
-391560
-391560
-391560
-391560
-391559
-391559
-391558
-391557
-391556
-391556
-391556
-391555
-391555
-391555
-393509
-393510
-393511
-393510
-393508
-393505
-393504
-393502
-393494
-393478
-393463
-393455
-393453
-393464
-393467
-393451
-393424
-393426
-393439
-393443
-393437
-393427
-393411
-393391
-393372
-393359
-393351
-393347
-393346
-393344
-393342
-393338
-393330
-393317
-393298
-393274
-393245
-393216
-393193
-393177
-393166
-393158
-393149
-393140
-393128
-393113
-393097
-393085
-393077
-393071
-393065
-393057
-393046
-393035
-393027
-393025
-393030
-393029
-393017
-392992
-392933
-392849
-392790
-392768
-392763
-392761
-392760
-392759
-392756
-392754
-392749
-392740
-392724
-392691
-392623
-392517
-392403
-392321
-392282
-392269
-392265
-392255
-392274
-392256
-392264
-392262
-392258
-392249
-392235
-392220
-392204
-392190
-392175
-392155
-392130
-392102
-392077
-392062
-392055
-392053
-392052
-392047
-392037
-392023
-392006
-391987
-391971
-391958
-391948
-391939
-391931
-391924
-391922
-391924
-391926
-391928
-391929
-391930
-391930
-391929
-391926
-391922
-391917
-391913
-391910
-391905
-391897
-391881
-391849
-391806
-391766
-391743
-391732
-391727
-391724
-391719
-391713
-391705
-391697
-391687
-391670
-391645
-391617
-391595
-391583
-391577
-391572
-391568
-391562
-391552
-391539
-391524
-391511
-391502
-391495
-391490
-391489
-391488
-391488
-391488
-391487
-391488
-391488
-391490
-391491
-391493
-391495
-391498
-391501
-391503
-391506
-391508
-391510
-391513
-391516
-391518
-391519
-391520
-391520
-391519
-391520
-391521
-391523
-391524
-391523
-391519
-391522
-391522
-391522
-391522
-391521
-391520
-391520
-391519
-391519
-391518
-391518
-391518
-391517
-391517
-393434
-393439
-393440
-393441
-393435
-393434
-393432
-393432
-393426
-393412
-393393
-393381
-393367
-393410
-393425
-393382
-393342
-393352
-393371
-393378
-393367
-393353
-393337
-393319
-393301
-393287
-393278
-393272
-393269
-393266
-393263
-393258
-393248
-393235
-393217
-393194
-393164
-393133
-393108
-393092
-393084
-393079
-393074
-393070
-393066
-393056
-393042
-393025
-393011
-392998
-392989
-392979
-392969
-392959
-392951
-392947
-392955
-392954
-392937
-392910
-392862
-392794
-392736
-392708
-392697
-392690
-392684
-392679
-392675
-392676
-392675
-392667
-392652
-392623
-392564
-392467
-392354
-392265
-392217
-392199
-392191
-392183
-392188
-392184
-392188
-392184
-392178
-392167
-392154
-392140
-392126
-392111
-392094
-392074
-392049
-392024
-392002
-391988
-391979
-391978
-391976
-391972
-391964
-391953
-391939
-391922
-391902
-391881
-391866
-391856
-391847
-391841
-391844
-391848
-391851
-391853
-391855
-391855
-391855
-391853
-391850
-391846
-391841
-391838
-391835
-391830
-391823
-391807
-391777
-391733
-391692
-391668
-391657
-391654
-391651
-391646
-391639
-391630
-391620
-391609
-391595
-391575
-391547
-391523
-391509
-391501
-391495
-391490
-391483
-391474
-391464
-391452
-391440
-391429
-391420
-391413
-391411
-391411
-391412
-391412
-391412
-391412
-391413
-391415
-391416
-391418
-391420
-391423
-391425
-391428
-391430
-391432
-391434
-391437
-391440
-391442
-391444
-391446
-391445
-391444
-391444
-391446
-391449
-391448
-391445
-391444
-391445
-391446
-391446
-391446
-391446
-391445
-391444
-391444
-391443
-391443
-391442
-391442
-391441
-391441
-393333
-393339
-393342
-393332
-393333
-393337
-393343
-393338
-393327
-393316
-393301
-393271
-393196
-393278
-393310
-393268
-393237
-393253
-393280
-393281
-393262
-393240
-393222
-393207
-393192
-393180
-393169
-393159
-393149
-393140
-393133
-393129
-393122
-393111
-393093
-393065
-393031
-393000
-392977
-392964
-392959
-392959
-392959
-392964
-392966
-392960
-392949
-392931
-392910
-392891
-392876
-392866
-392859
-392853
-392841
-392833
-392828
-392834
-392819
-392793
-392749
-392689
-392638
-392610
-392597
-392588
-392578
-392568
-392559
-392556
-392560
-392554
-392536
-392499
-392435
-392350
-392258
-392180
-392127
-392098
-392083
-392073
-392072
-392073
-392074
-392069
-392060
-392049
-392037
-392024
-392011
-391998
-391980
-391958
-391932
-391907
-391888
-391875
-391867
-391865
-391863
-391859
-391853
-391844
-391832
-391814
-391788
-391765
-391749
-391737
-391724
-391709
-391727
-391739
-391741
-391742
-391742
-391742
-391743
-391742
-391738
-391733
-391728
-391726
-391724
-391719
-391711
-391696
-391668
-391627
-391587
-391561
-391550
-391545
-391541
-391535
-391527
-391516
-391505
-391495
-391484
-391466
-391440
-391415
-391399
-391390
-391384
-391377
-391370
-391362
-391354
-391342
-391328
-391315
-391304
-391296
-391294
-391294
-391295
-391297
-391299
-391300
-391302
-391303
-391305
-391306
-391308
-391310
-391313
-391315
-391317
-391318
-391321
-391324
-391326
-391329
-391333
-391335
-391333
-391332
-391332
-391333
-391335
-391334
-391331
-391329
-391330
-391332
-391332
-391333
-391333
-391332
-391332
-391331
-391330
-391329
-391328
-391328
-391327
-391327
-393178
-393181
-393180
-393178
-393189
-393209
-393261
-393316
-393344
-393304
-393209
-393095
-392989
-393079
-393104
-393103
-393113
-393120
-393138
-393160
-393134
-393087
-393062
-393048
-393037
-393027
-393018
-393005
-392986
-392969
-392962
-392959
-392956
-392944
-392922
-392888
-392853
-392828
-392811
-392798
-392794
-392800
-392808
-392823
-392832
-392829
-392814
-392793
-392762
-392733
-392717
-392718
-392724
-392717
-392700
-392678
-392667
-392664
-392658
-392637
-392593
-392534
-392489
-392473
-392470
-392460
-392445
-392429
-392416
-392410
-392408
-392399
-392375
-392328
-392255
-392174
-392102
-392042
-391995
-391962
-391941
-391929
-391924
-391924
-391923
-391917
-391906
-391895
-391883
-391871
-391859
-391845
-391828
-391804
-391776
-391751
-391734
-391722
-391716
-391714
-391711
-391707
-391701
-391690
-391676
-391656
-391633
-391615
-391605
-391594
-391568
-391452
-391560
-391601
-391596
-391594
-391592
-391592
-391593
-391596
-391591
-391585
-391580
-391579
-391578
-391570
-391558
-391542
-391514
-391477
-391442
-391419
-391409
-391406
-391398
-391390
-391380
-391368
-391356
-391345
-391333
-391316
-391293
-391271
-391255
-391244
-391236
-391228
-391220
-391212
-391203
-391191
-391175
-391160
-391149
-391138
-391136
-391132
-391139
-391144
-391148
-391151
-391153
-391155
-391156
-391157
-391159
-391161
-391164
-391166
-391168
-391170
-391172
-391174
-391176
-391180
-391184
-391185
-391183
-391182
-391183
-391183
-391183
-391183
-391183
-391180
-391177
-391180
-391182
-391182
-391182
-391182
-391181
-391179
-391178
-391177
-391176
-391176
-391176
-391176
-392980
-392971
-392967
-392971
-392978
-393008
-393078
-393190
-393246
-393210
-393130
-392965
-392816
-392881
-392912
-392916
-392916
-392922
-392956
-393023
-393006
-392905
-392850
-392846
-392844
-392840
-392829
-392810
-392785
-392770
-392757
-392761
-392758
-392745
-392719
-392682
-392649
-392631
-392614
-392579
-392560
-392616
-392636
-392651
-392671
-392670
-392658
-392622
-392587
-392559
-392545
-392542
-392542
-392533
-392517
-392496
-392478
-392464
-392452
-392425
-392377
-392324
-392294
-392298
-392321
-392311
-392283
-392256
-392242
-392233
-392219
-392195
-392156
-392096
-392023
-391956
-391903
-391860
-391823
-391791
-391767
-391751
-391742
-391738
-391735
-391727
-391717
-391704
-391693
-391682
-391669
-391653
-391634
-391609
-391582
-391558
-391542
-391529
-391523
-391521
-391520
-391515
-391510
-391496
-391479
-391460
-391444
-391432
-391429
-391439
-391302
-390969
-391295
-391449
-391422
-391412
-391408
-391406
-391406
-391407
-391405
-391400
-391399
-391400
-391399
-391384
-391367
-391348
-391321
-391286
-391255
-391236
-391232
-391233
-391215
-391209
-391199
-391184
-391169
-391154
-391140
-391125
-391110
-391093
-391075
-391061
-391049
-391039
-391030
-391021
-391010
-390995
-390980
-390968
-390958
-390942
-390945
-390919
-390947
-390958
-390962
-390965
-390967
-390970
-390971
-390973
-390974
-390976
-390978
-390980
-390982
-390983
-390986
-390989
-390991
-390993
-390995
-390996
-390995
-390995
-390995
-390995
-390995
-390996
-390996
-390994
-390989
-390990
-390994
-390995
-390994
-390993
-390992
-390990
-390990
-390989
-390988
-390986
-390987
-390988
-392763
-392742
-392732
-392730
-392731
-392736
-392730
-392730
-392735
-392764
-392794
-392741
-392636
-392647
-392682
-392690
-392687
-392688
-392720
-392800
-392809
-392713
-392651
-392645
-392639
-392626
-392606
-392581
-392555
-392530
-392512
-392516
-392522
-392517
-392492
-392457
-392423
-392402
-392362
-392215
-392243
-392396
-392472
-392461
-392475
-392486
-392476
-392429
-392389
-392367
-392348
-392333
-392320
-392306
-392288
-392268
-392249
-392230
-392207
-392172
-392124
-392079
-392052
-392052
-392071
-392064
-392046
-392036
-392027
-392009
-391968
-391914
-391855
-391797
-391747
-391708
-391672
-391642
-391610
-391581
-391553
-391531
-391519
-391514
-391510
-391501
-391489
-391478
-391468
-391458
-391445
-391427
-391402
-391379
-391352
-391328
-391303
-391285
-391287
-391294
-391293
-391287
-391278
-391266
-391248
-391231
-391217
-391206
-391214
-391256
-391032
-390807
-391005
-391292
-391218
-391198
-391190
-391184
-391180
-391177
-391174
-391172
-391171
-391177
-391191
-391176
-391146
-391124
-391098
-391062
-391029
-391011
-391021
-391032
-390951
-390982
-390980
-390963
-390942
-390923
-390907
-390897
-390888
-390875
-390857
-390836
-390816
-390801
-390792
-390785
-390775
-390764
-390753
-390747
-390735
-390708
-390729
-390536
-390726
-390743
-390743
-390745
-390747
-390749
-390749
-390749
-390750
-390753
-390754
-390756
-390758
-390759
-390762
-390765
-390767
-390768
-390769
-390770
-390771
-390771
-390771
-390771
-390771
-390771
-390772
-390771
-390764
-390763
-390768
-390770
-390769
-390769
-390768
-390767
-390766
-390764
-390763
-390751
-390756
-390765
-392582
-392503
-392486
-392481
-392484
-392465
-392448
-392435
-392425
-392439
-392484
-392510
-392455
-392431
-392434
-392423
-392409
-392408
-392453
-392508
-392491
-392417
-392391
-392379
-392367
-392351
-392331
-392309
-392289
-392267
-392243
-392244
-392258
-392253
-392231
-392194
-392159
-392135
-392095
-391920
-392069
-392280
-392218
-392170
-392178
-392224
-392296
-392261
-392183
-392142
-392114
-392089
-392065
-392042
-392020
-391999
-391978
-391955
-391926
-391890
-391851
-391819
-391798
-391785
-391779
-391772
-391766
-391758
-391744
-391711
-391651
-391584
-391530
-391490
-391460
-391433
-391419
-391393
-391359
-391319
-391289
-391272
-391267
-391264
-391258
-391245
-391230
-391213
-391197
-391188
-391182
-391161
-391132
-391103
-391080
-391048
-391017
-391007
-391024
-391037
-391034
-391023
-391010
-390997
-390986
-390974
-390963
-390954
-390960
-391043
-390895
-390821
-390977
-390999
-390952
-390947
-390939
-390931
-390924
-390918
-390909
-390902
-390898
-390906
-390928
-390943
-390910
-390869
-390838
-390800
-390766
-390749
-390773
-390803
-390690
-390719
-390718
-390697
-390672
-390652
-390637
-390630
-390625
-390614
-390593
-390564
-390540
-390525
-390518
-390513
-390509
-390504
-390498
-390495
-390489
-390406
-390469
-389898
-390475
-390508
-390499
-390495
-390493
-390491
-390491
-390491
-390492
-390493
-390495
-390496
-390497
-390498
-390500
-390503
-390504
-390506
-390507
-390509
-390510
-390510
-390510
-390510
-390510
-390511
-390511
-390511
-390509
-390502
-390506
-390511
-390510
-390508
-390507
-390506
-390506
-390505
-390504
-390486
-390488
-390503
-392353
-392235
-392194
-392178
-392179
-392169
-392183
-392155
-392153
-392169
-392218
-392274
-392256
-392193
-392133
-392100
-392075
-392104
-392139
-392223
-392174
-392105
-392068
-392048
-392042
-392034
-392018
-392005
-391994
-391975
-391965
-391975
-391972
-391954
-391922
-391884
-391856
-391843
-391821
-391689
-391805
-391947
-391836
-391813
-391815
-391876
-392062
-392143
-392074
-391946
-391863
-391810
-391772
-391742
-391718
-391698
-391676
-391650
-391615
-391578
-391550
-391543
-391530
-391508
-391486
-391465
-391443
-391418
-391388
-391352
-391310
-391268
-391233
-391195
-391148
-391109
-391095
-391084
-391063
-391034
-391010
-391004
-391004
-390989
-390968
-390957
-390938
-390916
-390889
-390866
-390848
-390828
-390809
-390794
-390776
-390755
-390735
-390723
-390733
-390734
-390732
-390723
-390710
-390699
-390692
-390683
-390672
-390662
-390657
-390679
-390454
-390828
-390971
-390675
-390645
-390650
-390645
-390639
-390633
-390627
-390617
-390605
-390594
-390588
-390606
-390646
-390634
-390582
-390542
-390505
-390473
-390454
-390474
-390486
-390431
-390429
-390413
-390387
-390363
-390341
-390319
-390316
-390322
-390314
-390291
-390259
-390233
-390215
-390205
-390206
-390213
-390214
-390211
-390209
-390210
-389867
-390181
-389614
-390145
-390256
-390223
-390211
-390203
-390199
-390198
-390197
-390197
-390197
-390198
-390198
-390199
-390200
-390202
-390204
-390206
-390209
-390212
-390215
-390215
-390213
-390212
-390212
-390212
-390213
-390214
-390214
-390213
-390207
-390206
-390219
-390214
-390211
-390209
-390208
-390208
-390208
-390206
-390197
-390189
-390209
-391979
-391862
-391833
-391829
-391836
-391860
-391877
-391861
-391848
-391849
-391891
-391979
-392077
-392005
-391868
-391758
-391688
-391654
-391765
-391910
-391920
-391823
-391721
-391668
-391706
-391708
-391682
-391648
-391642
-391666
-391687
-391678
-391657
-391624
-391584
-391548
-391524
-391512
-391500
-391364
-391394
-391481
-391464
-391448
-391434
-391490
-391699
-391868
-391821
-391737
-391630
-391526
-391452
-391410
-391388
-391371
-391355
-391329
-391295
-391256
-391226
-391213
-391203
-391186
-391159
-391126
-391089
-391053
-391016
-390979
-390943
-390916
-390892
-390860
-390813
-390777
-390762
-390755
-390734
-390705
-390685
-390682
-390682
-390645
-390639
-390602
-390588
-390567
-390541
-390511
-390490
-390485
-390485
-390473
-390456
-390437
-390423
-390412
-390394
-390377
-390372
-390382
-390383
-390376
-390364
-390352
-390340
-390330
-390316
-390283
-390154
-390276
-390655
-390336
-390313
-390316
-390312
-390304
-390301
-390298
-390289
-390276
-390261
-390250
-390250
-390285
-390312
-390261
-390213
-390176
-390145
-390128
-390133
-390129
-390110
-390092
-390072
-390051
-390031
-389998
-389948
-389929
-389976
-389982
-389965
-389932
-389902
-389881
-389862
-389857
-389866
-389880
-389883
-389886
-389889
-389360
-389941
-389616
-390047
-389937
-389895
-389881
-389874
-389871
-389869
-389868
-389867
-389866
-389865
-389865
-389863
-389864
-389866
-389870
-389876
-389882
-389884
-389882
-389880
-389878
-389877
-389877
-389877
-389878
-389878
-389878
-389878
-389875
-389871
-389882
-389880
-389878
-389877
-389875
-389874
-389871
-389865
-389855
-389860
-389873
-391561
-391490
-391466
-391473
-391481
-391519
-391518
-391493
-391435
-391424
-391433
-391520
-391732
-391835
-391672
-391282
-391029
-391107
-391260
-391439
-391545
-391501
-391400
-390879
-391403
-391398
-391184
-391138
-391263
-391375
-391378
-391354
-391308
-391268
-391226
-391183
-391148
-391123
-391052
-390933
-390962
-391064
-391095
-391100
-391098
-391106
-391197
-391326
-391349
-391333
-391280
-391201
-391128
-391101
-391085
-391094
-391080
-391034
-390969
-390911
-390870
-390840
-390825
-390810
-390785
-390751
-390715
-390683
-390645
-390596
-390546
-390512
-390490
-390474
-390454
-390431
-390412
-390392
-390360
-390313
-390286
-390282
-390286
-390281
-390283
-390249
-390210
-390187
-390179
-390164
-390150
-390145
-390135
-390118
-390086
-390062
-390044
-390029
-390011
-390001
-390018
-390028
-390025
-390011
-389992
-389976
-389967
-389955
-389921
-389866
-389820
-389903
-390027
-389949
-389936
-389942
-389941
-389938
-389935
-389930
-389919
-389904
-389890
-389879
-389879
-389907
-389943
-389907
-389852
-389814
-389782
-389763
-389758
-389758
-389742
-389722
-389703
-389686
-389669
-389642
-389550
-389518
-389611
-389623
-389605
-389573
-389540
-389519
-389503
-389474
-389449
-389473
-389492
-389514
-389396
-389346
-389877
-389501
-389719
-389519
-389509
-389506
-389506
-389509
-389510
-389507
-389502
-389500
-389497
-389495
-389493
-389493
-389495
-389499
-389507
-389512
-389511
-389508
-389506
-389505
-389505
-389505
-389506
-389506
-389506
-389506
-389505
-389504
-389504
-389507
-389507
-389507
-389507
-389507
-389504
-389496
-389479
-389455
-389475
-389506
-391130
-391089
-391102
-391135
-391176
-391208
-391182
-391066
-390988
-390944
-390952
-391030
-391222
-391480
-391402
-390955
-390573
-390702
-390878
-390963
-391022
-391109
-391214
-390584
-390559
-390851
-390791
-390740
-390872
-390997
-391034
-391003
-390926
-390869
-390824
-390782
-390741
-390705
-390653
-390554
-390526
-390670
-390774
-390774
-390747
-390721
-390714
-390744
-390763
-390756
-390736
-390712
-390728
-390805
-390873
-390864
-390797
-390708
-390622
-390549
-390490
-390457
-390448
-390447
-390419
-390371
-390319
-390277
-390240
-390204
-390159
-390115
-390085
-390064
-390038
-390014
-389993
-389973
-389938
-389899
-389890
-389887
-389877
-389868
-389868
-389863
-389843
-389830
-389818
-389796
-389775
-389755
-389742
-389705
-389664
-389611
-389569
-389555
-389563
-389596
-389623
-389625
-389614
-389595
-389575
-389559
-389543
-389522
-389485
-389454
-389464
-389511
-389549
-389533
-389521
-389540
-389546
-389536
-389530
-389519
-389507
-389496
-389487
-389482
-389485
-389500
-389528
-389512
-389464
-389418
-389385
-389359
-389350
-389353
-389355
-389337
-389293
-389261
-389239
-389210
-389116
-389095
-389208
-389215
-389198
-389170
-389137
-389115
-389089
-389044
-388983
-388996
-389041
-389068
-388963
-389529
-389775
-389153
-389099
-389070
-389079
-389111
-389159
-389165
-389132
-389107
-389098
-389094
-389093
-389093
-389093
-389094
-389094
-389096
-389100
-389102
-389100
-389099
-389098
-389098
-389098
-389098
-389098
-389098
-389097
-389096
-389095
-389094
-389096
-389099
-389099
-389099
-389099
-389099
-389100
-389096
-389077
-389042
-389092
-389103
-390627
-390658
-390755
-390889
-391123
-391134
-390924
-390530
-390335
-390320
-390384
-390529
-390703
-390838
-390751
-390459
-390315
-390453
-390542
-390543
-390528
-390569
-390604
-390423
-390785
-390930
-390565
-390375
-390482
-390585
-390636
-390609
-390536
-390440
-390392
-390351
-390324
-390294
-390246
-390178
-390189
-390336
-390420
-390401
-390362
-390326
-390283
-390232
-390189
-390162
-390140
-390132
-390206
-390355
-390458
-390384
-390303
-390243
-390182
-390122
-390075
-390059
-390089
-390120
-390079
-389981
-389891
-389842
-389806
-389767
-389724
-389688
-389667
-389629
-389589
-389553
-389526
-389505
-389488
-389478
-389473
-389457
-389434
-389417
-389407
-389400
-389395
-389385
-389366
-389342
-389316
-389297
-389276
-389252
-389212
-389133
-389043
-389062
-389137
-389192
-389191
-389178
-389156
-389139
-389117
-389094
-389078
-389074
-389075
-389079
-389080
-389087
-389094
-389088
-389086
-389102
-389101
-389093
-389081
-389069
-389063
-389061
-389059
-389053
-389045
-389044
-389059
-389073
-389048
-388998
-388957
-388926
-388911
-388921
-388938
-388927
-388848
-388781
-388749
-388733
-388690
-388688
-388742
-388744
-388741
-388720
-388691
-388652
-388596
-388547
-388525
-388580
-388634
-388645
-388568
-388770
-389056
-388624
-388632
-388635
-388647
-388680
-388695
-388670
-388655
-388650
-388649
-388649
-388652
-388656
-388659
-388659
-388659
-388658
-388657
-388656
-388654
-388654
-388655
-388657
-388655
-388655
-388655
-388654
-388651
-388646
-388644
-388646
-388651
-388654
-388654
-388654
-388653
-388654
-388655
-388655
-388649
-388646
-388649
-388656
-390161
-390217
-390384
-390810
-391104
-391008
-390470
-389950
-389778
-389850
-389965
-390085
-390179
-390176
-390081
-389992
-390025
-390098
-390150
-390145
-390150
-390163
-389730
-390375
-391073
-390606
-389895
-389937
-390059
-390137
-390183
-390235
-390164
-390047
-389933
-389884
-389845
-389826
-389814
-389812
-389835
-389916
-389987
-389985
-389936
-389865
-389795
-389736
-389688
-389634
-389594
-389616
-389727
-389923
-390014
-389942
-389830
-389756
-389709
-389660
-389619
-389591
-389586
-389591
-389553
-389485
-389418
-389356
-389299
-389255
-389229
-389236
-389258
-389163
-389089
-389063
-389046
-389027
-389017
-389007
-388990
-388962
-388934
-388914
-388902
-388896
-388890
-388879
-388857
-388826
-388801
-388792
-388778
-388763
-388749
-388712
-388653
-388692
-388733
-388727
-388702
-388663
-388640
-388617
-388614
-388608
-388610
-388612
-388611
-388609
-388608
-388611
-388615
-388614
-388614
-388621
-388620
-388607
-388595
-388584
-388581
-388585
-388591
-388587
-388574
-388568
-388579
-388608
-388594
-388538
-388488
-388452
-388432
-388439
-388454
-388453
-388392
-388326
-388277
-388272
-388261
-388251
-388230
-388213
-388220
-388210
-388184
-388145
-388095
-388070
-388101
-388162
-388189
-388186
-388169
-388165
-388193
-388158
-388170
-388174
-388172
-388166
-388156
-388146
-388152
-388162
-388168
-388174
-388183
-388193
-388196
-388190
-388184
-388180
-388178
-388177
-388176
-388176
-388179
-388181
-388180
-388176
-388176
-388173
-388169
-388164
-388164
-388168
-388172
-388173
-388174
-388172
-388172
-388170
-388168
-388166
-388162
-388156
-388162
-388165
-389674
-389724
-389894
-390126
-390248
-389984
-389427
-389375
-389461
-389520
-389584
-389678
-389740
-389677
-389560
-389499
-389507
-389572
-389743
-389932
-389987
-389664
-389274
-390253
-390915
-389660
-389391
-389463
-389512
-389550
-389651
-389901
-389861
-389690
-389455
-389363
-389350
-389433
-389513
-389530
-389533
-389507
-389468
-389408
-389349
-389300
-389266
-389254
-389254
-389230
-389189
-389164
-389192
-389296
-389374
-389352
-389302
-389288
-389296
-389261
-389190
-389107
-389056
-389040
-389016
-388964
-388890
-388815
-388752
-388718
-388708
-388779
-388882
-388719
-388543
-388545
-388524
-388516
-388499
-388481
-388455
-388423
-388397
-388372
-388348
-388345
-388342
-388316
-388286
-388266
-388273
-388273
-388254
-388230
-388218
-388170
-388133
-388161
-388198
-388167
-388113
-388037
-387992
-388011
-388075
-388111
-388100
-388086
-388074
-388073
-388083
-388096
-388103
-388103
-388101
-388098
-388090
-388086
-388070
-388065
-388060
-388065
-388076
-388085
-388097
-388108
-388117
-388100
-388066
-388016
-387975
-387943
-387916
-387896
-387885
-387884
-387879
-387849
-387809
-387774
-387780
-387773
-387701
-387643
-387621
-387588
-387570
-387578
-387573
-387607
-387654
-387682
-387686
-387678
-387664
-387647
-387641
-387640
-387649
-387655
-387654
-387651
-387635
-387613
-387618
-387649
-387665
-387677
-387688
-387699
-387699
-387688
-387676
-387669
-387666
-387664
-387663
-387663
-387663
-387664
-387662
-387662
-387663
-387653
-387647
-387648
-387652
-387654
-387656
-387657
-387658
-387658
-387656
-387652
-387647
-387640
-387630
-387628
-387629
-387634
-389318
-389326
-389325
-389130
-388842
-388720
-388780
-388918
-388999
-389065
-389165
-389282
-389299
-389172
-389018
-388938
-388984
-389136
-389324
-389454
-389432
-389083
-388681
-388828
-389070
-388847
-388866
-388870
-388876
-388924
-389231
-389633
-389605
-389320
-388988
-388932
-389020
-389178
-389232
-389204
-389078
-388950
-388861
-388800
-388766
-388732
-388739
-388838
-388858
-388768
-388693
-388636
-388601
-388589
-388607
-388624
-388642
-388716
-388806
-388778
-388675
-388570
-388511
-388489
-388468
-388414
-388343
-388273
-388225
-388198
-388203
-388356
-388614
-388348
-388068
-388043
-388040
-387988
-387950
-387913
-387878
-387844
-387811
-387744
-387650
-387681
-387674
-387639
-387636
-387684
-387727
-387724
-387693
-387667
-387636
-387584
-387531
-387577
-387558
-387544
-387484
-387478
-387528
-387592
-387619
-387600
-387563
-387516
-387506
-387529
-387555
-387550
-387553
-387551
-387545
-387536
-387532
-387522
-387528
-387521
-387528
-387530
-387540
-387572
-387620
-387605
-387562
-387524
-387493
-387469
-387446
-387418
-387386
-387355
-387329
-387316
-387313
-387310
-387277
-387240
-387236
-387235
-387065
-387010
-387025
-386950
-386931
-386973
-386979
-387042
-387114
-387136
-387135
-387129
-387115
-387099
-387076
-387054
-387064
-387081
-387094
-387084
-387064
-387032
-387067
-387126
-387143
-387143
-387142
-387144
-387148
-387144
-387131
-387121
-387115
-387112
-387110
-387109
-387110
-387112
-387113
-387113
-387110
-387105
-387101
-387100
-387100
-387102
-387105
-387110
-387109
-387106
-387102
-387097
-387092
-387087
-387081
-387066
-387071
-387070
-389945
-389475
-388738
-388044
-387719
-387904
-388180
-388347
-388431
-388491
-388588
-388665
-388562
-388414
-388356
-388387
-388475
-388677
-388872
-388809
-388428
-388166
-388156
-388202
-388217
-388231
-388244
-388252
-388272
-388373
-388714
-389102
-389009
-388700
-388439
-388516
-388576
-388541
-388463
-388381
-388303
-388270
-388234
-388241
-388218
-388202
-388195
-388193
-388169
-388132
-388079
-388036
-388011
-388001
-388000
-387997
-388008
-388059
-388109
-388085
-388031
-387971
-387940
-387937
-387915
-387799
-387670
-387594
-387549
-387528
-387551
-387909
-388373
-388009
-387532
-387515
-387551
-387559
-387512
-387400
-387291
-387247
-387202
-387058
-386852
-386960
-387046
-387101
-387165
-387201
-387187
-387149
-387107
-387074
-387026
-386941
-386930
-386959
-386976
-386959
-386970
-387000
-387026
-387033
-387034
-387033
-387017
-387013
-386940
-386979
-387016
-386978
-386962
-386962
-386957
-386948
-386933
-386933
-386946
-386963
-386972
-386977
-386980
-387043
-387105
-387057
-386955
-386928
-386920
-386919
-386900
-386872
-386840
-386801
-386760
-386731
-386718
-386711
-386704
-386656
-386670
-386727
-386408
-386346
-386488
-386450
-386410
-386273
-386063
-386101
-386526
-386563
-386563
-386551
-386541
-386525
-386513
-386510
-386517
-386516
-386513
-386504
-386495
-386466
-386506
-386553
-386559
-386552
-386549
-386547
-386547
-386543
-386535
-386530
-386526
-386522
-386519
-386518
-386518
-386521
-386525
-386527
-386528
-386525
-386517
-386511
-386514
-386521
-386525
-386524
-386519
-386513
-386507
-386504
-386502
-386498
-386491
-386485
-386466
-386483
-390303
-390157
-389239
-387560
-387073
-387333
-387622
-387753
-387815
-387867
-387969
-387952
-387794
-387693
-387691
-387695
-387750
-387988
-388426
-388202
-387512
-387323
-387439
-387520
-387556
-387571
-387581
-387593
-387620
-387699
-387901
-388126
-388048
-387886
-387854
-387880
-387818
-387707
-387620
-387579
-387562
-387552
-387588
-387682
-387722
-387633
-387539
-387492
-387460
-387436
-387415
-387411
-387429
-387449
-387434
-387405
-387382
-387367
-387348
-387321
-387302
-387309
-387384
-387520
-387403
-387134
-386989
-386934
-386886
-386852
-386844
-387003
-387495
-387024
-386829
-386861
-386939
-387015
-386980
-386881
-386768
-386690
-386616
-386368
-386187
-386373
-386556
-386621
-386639
-386612
-386561
-386510
-386468
-386427
-386341
-386204
-386234
-386323
-386360
-386374
-386393
-386402
-386403
-386393
-386383
-386381
-386396
-386403
-386336
-386131
-386440
-386322
-386312
-386322
-386330
-386326
-386326
-386312
-386301
-386302
-386302
-386311
-386353
-386435
-386517
-386424
-386348
-386323
-386329
-386354
-386336
-386250
-386231
-386208
-386169
-386130
-386103
-386086
-386073
-386068
-386137
-386334
-386016
-385801
-385922
-385922
-385860
-385640
-385167
-385163
-385756
-385980
-385949
-385934
-385919
-385919
-385933
-385937
-385923
-385909
-385901
-385895
-385879
-385869
-385907
-385933
-385924
-385916
-385912
-385912
-385918
-385918
-385910
-385905
-385901
-385898
-385897
-385896
-385895
-385895
-385897
-385899
-385900
-385897
-385889
-385880
-385884
-385890
-385892
-385889
-385885
-385881
-385878
-385877
-385874
-385870
-385863
-385853
-385861
-385851
-389235
-389627
-388849
-387336
-386851
-386992
-387089
-387148
-387174
-387306
-387409
-387651
-387192
-387038
-386988
-386975
-386989
-387211
-387846
-387599
-386686
-386401
-386570
-386742
-386843
-386883
-386898
-386915
-386946
-387014
-387131
-387232
-387194
-387120
-387087
-387077
-387058
-386982
-386920
-386875
-386864
-386861
-386940
-387083
-387111
-386972
-386872
-386814
-386776
-386742
-386736
-386778
-386838
-386823
-386779
-386742
-386719
-386693
-386652
-386612
-386591
-386623
-386806