/*--------------------------------*- C++ -*----------------------------------*\
  =========                 |
  \\      /  F ield         | OpenFOAM: The Open Source CFD Toolbox
   \\    /   O peration     | Website:  https://openfoam.org
    \\  /    A nd           | Version:  8
     \\/     M anipulation  |
\*---------------------------------------------------------------------------*/
FoamFile
{
    version     2.0;
    format      ascii;
    class       volScalarField;
    location    "600";
    object      rho;
}
// * * * * * * * * * * * * * * * * * * * * * * * * * * * * * * * * * * * * * //

dimensions      [1 -3 0 0 0 0 0];

internalField   nonuniform List<scalar> 
20000
(
1003.56
1003.58
1003.57
1003.63
1003.74
1003.82
1003.84
1003.85
1003.85
1003.84
1003.82
1003.79
1003.75
1003.57
1003.44
1003.58
1004.52
1004.65
1003.98
1003.7
1003.8
1003.83
1003.85
1003.87
1003.9
1003.91
1003.9
1003.86
1003.78
1003.77
1003.72
1003.68
1003.67
1003.71
1003.77
1003.83
1003.85
1003.84
1003.8
1003.75
1003.74
1003.8
1003.91
1004.02
1004.1
1004.15
1004.11
1004.06
1003.92
1003.81
1003.73
1003.7
1003.76
1003.85
1003.98
1003.96
1003.47
1003.31
1003.64
1003.79
1003.85
1003.88
1003.92
1003.96
1003.94
1003.84
1003.66
1003.5
1003.55
1003.65
1003.78
1003.9
1003.96
1003.95
1003.92
1003.88
1003.86
1003.84
1003.84
1003.84
1003.94
1005.19
1003.16
1004.96
1003.83
1003.66
1003.67
1003.71
1003.78
1003.83
1003.82
1003.74
1003.7
1003.77
1003.83
1003.85
1003.87
1003.91
1003.96
1003.91
1003.84
1003.84
1003.85
1003.88
1003.92
1003.94
1003.93
1003.88
1003.82
1003.75
1003.74
1003.8
1003.84
1003.86
1003.87
1003.87
1003.86
1003.84
1003.83
1003.83
1003.84
1003.84
1003.84
1003.84
1003.84
1003.84
1003.84
1003.85
1003.85
1003.85
1003.85
1003.85
1003.85
1003.84
1003.84
1003.81
1003.79
1003.82
1003.85
1003.86
1003.86
1003.86
1003.86
1003.86
1003.87
1003.9
1003.88
1003.87
1003.86
1003.86
1003.85
1003.84
1003.82
1003.8
1003.84
1003.96
1004.01
1004.03
1003.97
1003.95
1003.95
1003.97
1003.89
1003.87
1003.85
1003.85
1003.85
1003.85
1003.85
1003.85
1003.84
1003.84
1003.84
1003.84
1003.84
1003.84
1003.83
1003.8
1003.85
1003.9
1003.88
1003.86
1003.81
1003.73
1003.65
1004.2
1003.85
1003.85
1003.85
1003.85
1003.86
1003.86
1003.85
1003.85
1003.85
1003.84
1003.84
1003.85
1003.86
1003.85
1011.18
1011.03
1010.86
1010.91
1011.12
1011.42
1011.53
1011.54
1011.51
1011.48
1011.44
1011.36
1011.24
1010.42
1009.99
1011.16
1013.92
1013.57
1011.65
1010.94
1011.27
1011.43
1011.53
1011.59
1011.65
1011.67
1011.64
1011.55
1011.43
1011.36
1011.23
1011.14
1011.15
1011.25
1011.36
1011.46
1011.49
1011.47
1011.41
1011.34
1011.27
1011.37
1011.58
1011.83
1011.94
1011.99
1011.93
1011.81
1011.66
1011.54
1011.45
1011.45
1011.59
1011.81
1011.88
1011.58
1010.49
1010.17
1010.97
1011.39
1011.53
1011.59
1011.67
1011.75
1011.77
1011.67
1011.41
1011.18
1011.13
1010.98
1011.04
1011.4
1011.65
1011.68
1011.62
1011.58
1011.56
1011.55
1011.56
1011.59
1011.73
1013.05
1010.04
1012.73
1011.33
1011.16
1011.12
1011.18
1011.34
1011.46
1011.48
1011.39
1011.31
1011.37
1011.44
1011.51
1011.59
1011.72
1011.87
1011.72
1011.53
1011.51
1011.58
1011.64
1011.67
1011.65
1011.61
1011.55
1011.48
1011.37
1011.34
1011.44
1011.51
1011.55
1011.56
1011.56
1011.53
1011.48
1011.47
1011.49
1011.51
1011.51
1011.51
1011.5
1011.49
1011.51
1011.52
1011.53
1011.53
1011.53
1011.53
1011.53
1011.52
1011.49
1011.46
1011.45
1011.44
1011.49
1011.53
1011.55
1011.54
1011.53
1011.52
1011.54
1011.59
1011.66
1011.69
1011.66
1011.62
1011.57
1011.54
1011.5
1011.46
1011.43
1011.52
1011.71
1011.77
1011.75
1011.68
1011.66
1011.77
1011.78
1011.72
1011.6
1011.59
1011.54
1011.54
1011.53
1011.53
1011.5
1011.49
1011.49
1011.5
1011.51
1011.52
1011.52
1011.49
1011.42
1011.52
1011.66
1011.65
1011.55
1011.36
1011.28
1011.34
1012.01
1011.56
1011.55
1011.54
1011.54
1011.54
1011.54
1011.53
1011.53
1011.53
1011.53
1011.53
1011.54
1011.54
1011.55
1018.61
1018.24
1018.11
1017.94
1018.46
1018.56
1018.86
1018.93
1019.05
1019.05
1018.96
1018.75
1019.29
1016.22
1015.12
1018.39
1021.65
1020.78
1018.93
1018.06
1018.57
1018.98
1019.15
1019.23
1019.29
1019.32
1019.3
1019.23
1019.13
1019.03
1018.9
1018.79
1018.83
1018.94
1019.05
1019.07
1019.06
1019.06
1019.06
1019.03
1019.02
1019.05
1019.26
1019.4
1019.49
1019.52
1019.47
1019.39
1019.31
1019.28
1019.27
1019.39
1019.57
1019.73
1019.59
1019.24
1018
1017.59
1018.26
1018.92
1019.12
1019.21
1019.28
1019.33
1019.37
1019.38
1019.37
1019.34
1019.22
1018.77
1018.41
1018.61
1018.96
1019.14
1019.19
1019.21
1019.22
1019.24
1019.28
1019.35
1019.53
1020.1
1019.28
1019.69
1019.11
1018.95
1018.84
1018.86
1018.97
1019.14
1019.22
1019.21
1019.16
1019.11
1019.11
1019.15
1019.24
1019.45
1019.61
1019.43
1019.2
1019.18
1019.25
1019.29
1019.27
1019.23
1019.2
1019.19
1019.17
1019.11
1019.09
1019.21
1019.15
1019.15
1019.2
1019.19
1019.17
1019.1
1019.09
1019.14
1019.17
1019.18
1019.17
1019.15
1019.12
1019.16
1019.18
1019.19
1019.19
1019.19
1019.19
1019.18
1019.16
1019.1
1019.06
1019.11
1019.16
1019.19
1019.21
1019.21
1019.19
1019.17
1019.16
1019.17
1019.2
1019.3
1019.38
1019.39
1019.36
1019.27
1019.18
1019.13
1019.13
1019.18
1019.35
1019.56
1019.54
1019.44
1019.36
1019.35
1019.4
1019.45
1019.4
1019.34
1019.27
1019.24
1019.2
1019.19
1019.18
1019.17
1019.17
1019.18
1019.2
1019.22
1019.22
1019.2
1019.13
1019.02
1019.12
1019.28
1019.31
1019.19
1018.95
1019.01
1019.31
1019.46
1019.29
1019.23
1019.21
1019.2
1019.2
1019.2
1019.2
1019.2
1019.2
1019.2
1019.21
1019.21
1019.23
1019.22
1025.37
1025
1024.76
1025.31
1025.27
1025.13
1024.96
1025.52
1026.17
1026.14
1025.82
1026.38
1030.2
1025.32
1023.38
1026.1
1028.21
1027.22
1025.3
1024.99
1025.8
1026.47
1026.74
1026.87
1026.96
1027.01
1026.97
1026.88
1026.79
1026.72
1026.62
1026.5
1026.54
1026.66
1026.72
1026.71
1026.66
1026.63
1026.68
1026.76
1026.86
1026.95
1027.06
1026.88
1026.76
1026.87
1026.93
1026.95
1026.97
1027.01
1027.2
1027.33
1027.38
1027.23
1027.17
1026.82
1026.36
1025.44
1025.68
1026.09
1026.4
1026.57
1026.69
1026.8
1026.88
1026.96
1027.03
1027.1
1027.12
1026.83
1026.21
1026.02
1026.19
1026.46
1026.69
1026.8
1026.85
1026.89
1026.95
1027.05
1027.24
1027.53
1027.35
1027.17
1026.84
1026.7
1026.64
1026.62
1026.7
1026.82
1026.91
1026.92
1026.89
1026.84
1026.81
1026.81
1026.9
1027.09
1027.18
1027.02
1026.84
1026.79
1026.8
1026.84
1026.84
1026.84
1026.84
1026.84
1026.82
1026.79
1026.85
1027.33
1026.82
1026.68
1026.78
1026.86
1026.85
1026.83
1026.71
1026.7
1026.75
1026.81
1026.81
1026.75
1026.69
1026.76
1026.83
1026.84
1026.84
1026.84
1026.84
1026.83
1026.79
1026.69
1026.66
1026.74
1026.8
1026.83
1026.85
1026.87
1026.86
1026.84
1026.82
1026.81
1026.81
1026.86
1026.92
1026.96
1026.96
1026.9
1026.8
1026.8
1026.85
1026.94
1027.13
1027.37
1027.33
1027.19
1027.06
1027.02
1027.01
1026.98
1026.91
1026.89
1026.86
1026.86
1026.84
1026.84
1026.84
1026.85
1026.86
1026.9
1026.93
1026.93
1026.92
1026.86
1026.71
1026.62
1026.74
1026.85
1026.87
1026.82
1026.72
1026.77
1026.96
1027.06
1026.97
1026.9
1026.87
1026.85
1026.85
1026.85
1026.85
1026.85
1026.85
1026.85
1026.86
1026.87
1026.87
1026.88
1033.24
1033.02
1033.03
1033.01
1032.44
1031.47
1029.17
1026.87
1025.68
1027.27
1031.07
1035.67
1040.21
1035.68
1034.28
1034.44
1034.2
1033.65
1032.47
1031.34
1032.3
1033.91
1034.6
1034.84
1034.97
1034.95
1034.75
1034.56
1034.44
1034.41
1034.27
1034.18
1034.18
1034.33
1034.38
1034.37
1034.3
1034.27
1034.3
1034.53
1034.78
1034.89
1034.76
1034.16
1033.84
1033.96
1034.33
1034.56
1034.93
1035.32
1035.48
1035.08
1034.48
1034.38
1034.48
1034.66
1034.43
1033.95
1033.68
1033.63
1033.7
1033.78
1033.85
1033.75
1033.55
1033.72
1034.06
1034.35
1034.48
1034.32
1033.91
1033.67
1033.67
1033.78
1034
1034.26
1034.42
1034.53
1034.62
1034.74
1034.9
1035.05
1034.99
1034.77
1034.52
1034.35
1034.3
1034.26
1034.32
1034.42
1034.48
1034.5
1034.49
1034.48
1034.47
1034.49
1034.56
1034.7
1034.74
1034.6
1034.47
1034.34
1034.33
1034.38
1034.45
1034.47
1034.47
1034.47
1034.45
1034.36
1034.66
1039.22
1035.23
1033.98
1034.36
1034.48
1034.52
1034.46
1034.32
1034.14
1034.23
1034.29
1034.33
1034.19
1034.12
1034.31
1034.44
1034.47
1034.48
1034.48
1034.47
1034.46
1034.4
1034.25
1034.27
1034.34
1034.39
1034.42
1034.45
1034.51
1034.53
1034.51
1034.47
1034.41
1034.4
1034.44
1034.48
1034.5
1034.51
1034.51
1034.5
1034.52
1034.55
1034.6
1034.77
1035.06
1035.02
1034.96
1034.74
1034.64
1034.58
1034.52
1034.49
1034.49
1034.49
1034.49
1034.49
1034.49
1034.48
1034.49
1034.5
1034.52
1034.56
1034.59
1034.58
1034.46
1034.28
1034.27
1034.39
1034.45
1034.46
1034.46
1034.45
1034.45
1034.51
1034.61
1034.72
1034.61
1034.51
1034.49
1034.48
1034.48
1034.48
1034.48
1034.48
1034.48
1034.49
1034.5
1034.52
1034.51
1041.33
1041.56
1041.57
1041.27
1040.74
1039.35
1036.47
1032.1
1029.93
1031.31
1034.4
1040.74
1046.42
1043.72
1042.29
1041.95
1041.75
1041.2
1039.61
1037
1037.56
1041.14
1043.03
1043.04
1042.84
1042.58
1042.35
1042.18
1042.16
1042.05
1042.17
1041.88
1041.82
1041.93
1042.01
1042.01
1041.99
1041.91
1042.03
1043
1043.88
1042.28
1041.82
1041.33
1040.65
1040.73
1041.05
1041.95
1042.48
1042.72
1042.64
1042.33
1041.98
1041.97
1042
1042.08
1042.08
1042.01
1041.85
1041.76
1041.71
1041.65
1041.45
1040.78
1039.69
1039.84
1040.66
1041.39
1041.57
1041.48
1041.38
1041.37
1041.3
1041.2
1041.29
1041.6
1041.92
1042.13
1042.26
1042.37
1042.49
1042.63
1042.62
1042.45
1042.19
1042.03
1041.91
1041.91
1041.9
1041.88
1041.94
1042.05
1042.09
1042.11
1042.11
1042.15
1042.25
1042.44
1042.48
1042.35
1042.13
1041.98
1041.8
1041.91
1042.01
1042.09
1042.11
1042.13
1041.99
1041.37
1045.68
1057.42
1045.96
1040.69
1041.7
1042.02
1042.07
1042.06
1041.94
1041.82
1041.75
1041.78
1041.64
1041.43
1041.36
1041.72
1042.01
1042.09
1042.09
1042.09
1042.08
1042.07
1041.91
1041.67
1042.02
1042
1041.99
1042.03
1042.08
1042.14
1042.17
1042.14
1042.07
1042.03
1042.05
1042.08
1042.09
1042.1
1042.1
1042.11
1042.12
1042.14
1042.16
1042.2
1042.38
1042.8
1042.56
1043.15
1042.37
1042.17
1042.12
1042.1
1042.11
1042.11
1042.11
1042.11
1042.11
1042.11
1042.11
1042.1
1042.11
1042.13
1042.15
1042.15
1042.13
1042.06
1041.97
1041.97
1042.02
1042.05
1042.07
1042.08
1042.08
1042.08
1042.1
1042.17
1042.37
1042.31
1042.13
1042.1
1042.1
1042.1
1042.1
1042.1
1042.09
1042.1
1042.1
1042.17
1042.15
1042.12
1048.8
1049.27
1049.35
1049.18
1048.92
1048.49
1048.33
1047.91
1047.51
1046.72
1046.14
1048.34
1051.94
1051.46
1050.13
1049.47
1049.03
1048.57
1047.33
1044.7
1044.44
1047.58
1049.61
1049.72
1049.69
1049.69
1049.68
1049.68
1049.75
1050.05
1050.38
1050.11
1049.74
1049.57
1049.6
1049.62
1049.65
1049.69
1050.61
1054.99
1054.31
1049.83
1047.5
1047.82
1047.42
1047.15
1047.57
1048.93
1049.76
1049.83
1049.76
1049.7
1049.66
1049.64
1049.64
1049.64
1049.65
1049.66
1049.66
1049.65
1049.63
1049.63
1049.56
1049.07
1048.21
1048.29
1048.68
1048.78
1048.66
1048.53
1048.69
1048.92
1048.97
1048.84
1048.76
1048.88
1049.26
1049.57
1049.83
1049.98
1050.21
1050.44
1050.46
1050.22
1049.94
1049.78
1049.67
1049.55
1049.41
1049.3
1049.28
1049.42
1049.68
1049.76
1049.83
1049.91
1050.28
1050.62
1050.44
1050.07
1049.84
1049.66
1049.56
1049.57
1049.74
1049.83
1049.86
1049.85
1049.42
1048.03
1054.94
1061.92
1055.92
1047.02
1049.19
1049.63
1049.69
1049.69
1049.67
1049.61
1049.53
1049.41
1049.26
1048.93
1048.38
1048.76
1049.45
1049.68
1049.67
1049.65
1049.66
1049.68
1049.14
1048.71
1051
1049.91
1049.67
1049.68
1049.71
1049.76
1049.79
1049.76
1049.69
1049.67
1049.69
1049.7
1049.7
1049.7
1049.7
1049.7
1049.7
1049.7
1049.71
1049.69
1049.96
1050.68
1049.94
1055.46
1049.9
1049.58
1049.65
1049.68
1049.7
1049.71
1049.75
1049.76
1049.76
1049.73
1049.72
1049.7
1049.71
1049.71
1049.7
1049.7
1049.7
1049.69
1049.67
1049.63
1049.63
1049.64
1049.66
1049.67
1049.68
1049.68
1049.69
1049.72
1049.92
1049.93
1049.75
1049.69
1049.7
1049.7
1049.7
1049.69
1049.7
1049.74
1049.76
1050.13
1049.97
1049.71
1054.16
1056.14
1056.35
1056.29
1056.08
1056.44
1056.72
1056.8
1056.84
1056.48
1055.5
1055.14
1056.88
1057.49
1057.13
1056.89
1056.59
1056.22
1054.9
1053.39
1053.85
1056
1056.78
1056.97
1057.06
1057.15
1057.23
1057.31
1057.45
1057.79
1058.23
1058.02
1057.43
1057.19
1057.16
1057.22
1057.37
1057.58
1058.55
1063.27
1059.22
1053.38
1055.01
1056.3
1056.05
1054.87
1053.1
1054.2
1056.17
1056.91
1057.11
1057.17
1057.2
1057.22
1057.23
1057.24
1057.27
1057.29
1057.28
1057.28
1057.29
1057.28
1057.21
1057.05
1056.84
1056.75
1056.67
1056.46
1056.08
1055.81
1055.94
1056.29
1056.5
1056.52
1056.46
1056.53
1056.45
1056.74
1057.18
1057.78
1058.12
1058.21
1058
1057.75
1057.54
1057.45
1057.38
1057.34
1057.23
1057.01
1056.76
1056.96
1057.38
1057.69
1057.75
1058.06
1058.57
1058.67
1058.07
1057.58
1057.44
1057.41
1057.41
1057.42
1057.43
1057.4
1057.34
1057.26
1056.93
1054.65
1058.94
1061.17
1056.92
1056.14
1057.28
1057.26
1057.27
1057.28
1057.29
1057.28
1057.26
1057.21
1057.11
1056.75
1056.04
1055.55
1056.33
1057.09
1057.23
1057.23
1057.26
1057.24
1056.37
1055.47
1058.5
1057.59
1057.35
1057.34
1057.34
1057.38
1057.43
1057.4
1057.32
1057.29
1057.29
1057.29
1057.29
1057.29
1057.29
1057.29
1057.27
1057.23
1057.18
1057.13
1057.22
1059.37
1057.78
1072.92
1057.61
1056.91
1057.17
1057.24
1057.27
1057.29
1057.3
1057.31
1057.29
1057.28
1057.28
1057.27
1057.29
1057.29
1057.28
1057.28
1057.28
1057.28
1057.26
1057.22
1057.2
1057.21
1057.24
1057.25
1057.26
1057.25
1057.24
1057.25
1057.3
1057.48
1057.36
1057.24
1057.26
1057.28
1057.29
1057.29
1057.29
1057.3
1057.31
1057.83
1057.75
1057.34
1060.08
1062.85
1063.73
1063.99
1063.85
1064
1063.54
1064.03
1063.88
1063.44
1062.35
1061.17
1061.79
1063.27
1064.34
1064.45
1064.45
1063.53
1062.76
1060.84
1062.05
1063.67
1064.39
1064.6
1064.65
1064.68
1064.79
1064.89
1065.08
1065.49
1065.59
1065.12
1064.84
1064.8
1064.84
1064.94
1065.05
1065.14
1065.63
1068.84
1065.88
1062.18
1064.8
1065.3
1065.15
1063.66
1059.3
1057.43
1059.08
1061.96
1063.57
1064.31
1064.58
1064.71
1064.77
1064.83
1064.88
1064.92
1065
1065.02
1064.9
1064.51
1064.35
1064.41
1064.46
1064.47
1064.4
1064.23
1063.9
1063.52
1063.33
1063.43
1063.62
1063.94
1064.46
1064.81
1064.7
1064.55
1064.68
1064.98
1065.2
1065.01
1064.71
1064.79
1065.05
1065.03
1065.13
1065.17
1065.24
1065.24
1065.21
1065.37
1065.54
1065.52
1065.48
1065.55
1065.71
1065.83
1065.43
1065.26
1065.15
1065.16
1065.18
1065.11
1064.98
1064.87
1064.81
1064.79
1064.76
1064.24
1069.87
1060.85
1057.28
1064.35
1065.04
1064.82
1064.83
1064.85
1064.87
1064.87
1064.85
1064.84
1064.83
1064.76
1064.19
1063.1
1063.28
1064.28
1064.7
1064.78
1064.8
1064.77
1064.06
1063.64
1065
1064.88
1064.86
1064.89
1064.93
1065.07
1065.35
1065.24
1064.99
1064.89
1064.88
1064.89
1064.96
1065.09
1065.18
1065.07
1064.83
1064.72
1064.65
1064.58
1064.55
1072.84
1065.62
1079.05
1066.57
1063.94
1064.62
1064.77
1064.82
1064.84
1064.84
1064.85
1064.85
1064.85
1064.85
1064.87
1064.87
1064.88
1064.86
1064.85
1064.84
1064.81
1064.76
1064.7
1064.72
1064.77
1064.81
1064.82
1064.83
1064.83
1064.82
1064.8
1064.83
1064.96
1064.98
1064.68
1064.79
1064.85
1064.9
1064.91
1064.9
1064.88
1064.92
1065.15
1065.34
1064.85
1068.67
1071.22
1071.84
1071.88
1071.65
1071.01
1070.49
1070.64
1070.72
1070.57
1069.68
1067.84
1065.86
1067.43
1070.03
1071.78
1072.82
1073.47
1071.14
1068.06
1067.88
1069.92
1071.88
1072.56
1071.94
1071.93
1072.29
1072.91
1073.1
1072.67
1072.17
1072.17
1072.29
1072.42
1072.47
1072.49
1072.59
1072.71
1072.93
1075.86
1075.06
1072.97
1073.28
1073.49
1073.62
1072.24
1067.6
1063.86
1064.85
1066.58
1068.62
1070.45
1071.56
1072.06
1072.22
1072.29
1072.3
1072.39
1072.46
1072.51
1072.37
1072.06
1071.81
1071.75
1071.83
1071.92
1071.93
1071.85
1071.7
1071.52
1071.41
1071.3
1071.32
1071.6
1072.14
1072.44
1072.28
1072.03
1072.1
1072.37
1072.45
1072.18
1071.89
1072.49
1072.47
1073.09
1073.18
1073.33
1073.41
1073.46
1073.38
1073.12
1072.82
1072.72
1072.68
1072.66
1072.68
1072.73
1072.98
1073.25
1073.28
1072.94
1072.71
1072.54
1072.42
1072.33
1072.3
1072.34
1072.55
1073.25
1076.13
1073.31
1064.91
1071.92
1072.44
1072.34
1072.38
1072.48
1072.46
1072.39
1072.36
1072.36
1072.36
1072.33
1072.13
1071.23
1070.55
1071.45
1072.12
1072.31
1072.35
1072.27
1071.89
1071.79
1072.11
1072.23
1072.27
1072.26
1072.31
1072.77
1073.64
1073.9
1072.81
1072.49
1072.42
1072.44
1072.49
1072.65
1072.93
1072.94
1072.66
1072.33
1072.24
1072.16
1072.14
1083.72
1071.54
1078.46
1069.18
1071.42
1072.19
1072.34
1072.38
1072.39
1072.38
1072.39
1072.39
1072.4
1072.41
1072.43
1072.48
1072.49
1072.46
1072.41
1072.31
1072.21
1072.18
1072.23
1072.3
1072.35
1072.38
1072.39
1072.39
1072.39
1072.4
1072.4
1072.4
1072.47
1072.55
1072.31
1072.36
1072.4
1072.42
1072.44
1072.46
1072.52
1072.63
1072.83
1072.76
1072.48
1077.3
1078.74
1079.26
1079.17
1078.99
1078.09
1077.86
1078.09
1078.95
1079.01
1078.76
1077.06
1073
1071.02
1074.06
1081.34
1085.99
1084.41
1081.36
1077.74
1075.62
1076.48
1078.38
1088.15
1078.12
1078.36
1082.4
1083.22
1080.83
1078.68
1078.6
1078.95
1079.57
1079.85
1079.96
1080.09
1080.35
1080.72
1082.08
1084.39
1083.71
1081.61
1080.9
1080.61
1080.41
1079.98
1077.87
1075.11
1074.53
1074.71
1075.54
1076.76
1077.86
1078.22
1078.39
1078.04
1078.05
1078.6
1079.34
1079.78
1079.79
1079.68
1079.45
1079.3
1079.3
1079.37
1079.37
1079.29
1079.35
1079.55
1079.74
1079.7
1079.56
1079.41
1079.4
1079.43
1079.38
1079.41
1079.75
1080.39
1080.61
1080.34
1079.96
1079.85
1079.67
1080.22
1080.83
1081.1
1080.91
1080.67
1080.39
1079.99
1079.78
1079.72
1079.96
1080.07
1080.16
1080.33
1080.63
1080.81
1080.43
1080.13
1079.99
1079.93
1079.9
1079.87
1079.86
1080
1080.62
1081.68
1082.59
1080.86
1078.23
1079.82
1080.08
1079.94
1079.95
1079.96
1079.91
1079.86
1079.84
1079.85
1079.86
1079.82
1079.62
1078.93
1078.12
1078.69
1079.48
1079.78
1079.85
1079.76
1079.55
1079.33
1079.46
1079.58
1079.66
1079.69
1079.72
1080.03
1081.65
1082.16
1080.27
1079.9
1079.91
1079.94
1079.97
1080.03
1080.21
1080.68
1081.1
1080.61
1080.25
1079.86
1082.18
1083.44
1073.21
1080.54
1076.11
1079.88
1079.96
1079.94
1079.9
1079.81
1079.76
1079.78
1079.85
1079.89
1079.93
1079.97
1080.02
1080.04
1080.02
1079.96
1079.82
1079.74
1079.78
1079.85
1079.9
1079.92
1079.93
1079.94
1079.94
1079.94
1079.94
1079.95
1079.97
1080.01
1080.01
1079.95
1079.94
1079.94
1079.94
1079.95
1079.99
1080.15
1080.49
1080.94
1080.56
1079.97
1085.35
1086.15
1085.99
1085.52
1084.84
1084.09
1084.22
1085.87
1086.95
1087.56
1087.36
1085.96
1082.5
1077.88
1079.27
1087.25
1094.07
1091.73
1088.41
1086.61
1085.38
1083.81
1082.02
1093.29
1093.79
1088.67
1089.65
1090.48
1088.06
1085.74
1085.01
1085.45
1086.59
1087.26
1087.57
1087.77
1088.1
1088.57
1089.48
1091.24
1091.64
1088.98
1087.02
1086.8
1086.99
1087.08
1086.82
1085.96
1085.41
1085.32
1085.42
1085.57
1085.11
1083.66
1082.37
1082.36
1083.33
1084.64
1085.73
1086.43
1086.76
1086.69
1086.37
1086.02
1086.13
1086.48
1086.8
1086.93
1086.97
1086.92
1086.96
1087.05
1087.06
1087.01
1087.05
1087.07
1087.09
1087.15
1087.58
1088.1
1088.04
1087.75
1087.56
1087.44
1087.29
1087.31
1087.57
1087.64
1087.52
1087.42
1087.21
1087.05
1086.85
1087.14
1087.53
1088.18
1088.73
1088.89
1088.75
1088.18
1087.64
1087.48
1087.43
1087.43
1087.47
1087.55
1087.72
1088.06
1088.7
1089.24
1089.06
1088.12
1087.31
1087.57
1087.76
1087.4
1087.27
1087.39
1087.37
1087.33
1087.31
1087.3
1087.27
1087.17
1086.93
1086.49
1085.87
1086.01
1086.66
1087.13
1087.28
1087.28
1087.1
1086.81
1086.58
1086.71
1087.27
1087.59
1087.73
1088.06
1089.58
1089.88
1087.77
1087.48
1087.49
1087.49
1087.5
1087.56
1087.87
1088.62
1089.67
1089.43
1088.61
1088.13
1089.99
1079.94
1075.42
1086.69
1087.58
1088.05
1087.8
1087.2
1086.34
1086.21
1086.78
1087.19
1087.34
1087.4
1087.43
1087.44
1087.44
1087.45
1087.46
1087.44
1087.37
1087.33
1087.38
1087.42
1087.44
1087.44
1087.45
1087.46
1087.46
1087.46
1087.47
1087.49
1087.52
1087.54
1087.53
1087.49
1087.47
1087.47
1087.47
1087.48
1087.5
1087.58
1087.93
1088.56
1087.67
1087.47
1093.97
1093.47
1091.89
1089.75
1085.96
1085.6
1088.7
1094.82
1097.82
1097.97
1096.85
1094.39
1091.41
1089.08
1090.54
1095.53
1098.07
1095.74
1094.06
1093.77
1093.8
1093.01
1092.47
1095.79
1089.97
1087.5
1093.42
1096.49
1094.57
1092.67
1091.71
1092.09
1093.15
1094.47
1094.95
1095.29
1095.42
1095.74
1096.46
1097.53
1097.24
1094.68
1093.15
1093.26
1093.61
1093.84
1094.17
1094.69
1095.15
1095.31
1095.36
1095.23
1093.86
1091.33
1089.52
1090.57
1091.69
1092.43
1093.05
1093.53
1093.69
1093.38
1092.44
1091.62
1091.98
1093.19
1094.16
1094.33
1094.21
1094.03
1093.98
1094.08
1094.15
1094.47
1094.79
1095.01
1095.07
1095.13
1095.23
1095.24
1095.11
1095.01
1094.96
1094.94
1094.95
1094.99
1094.98
1094.95
1094.91
1094.85
1094.81
1094.72
1094.69
1094.73
1095.12
1096.2
1097.54
1097.18
1095.92
1094.95
1094.84
1094.83
1094.96
1095.04
1095.25
1095.48
1095.65
1095.67
1095.64
1095.57
1095.51
1095.29
1095.08
1095.12
1095.14
1094.84
1094.82
1094.86
1094.87
1094.83
1094.73
1094.63
1094.57
1094.53
1094.47
1094.31
1093.88
1093.51
1093.71
1094.23
1094.53
1094.66
1094.56
1094.16
1093.7
1093.72
1094.83
1095.73
1096.05
1096.15
1096.76
1096.69
1095.65
1095.42
1095.15
1095.06
1095.11
1095.46
1096.26
1097.03
1097.39
1096.48
1095.54
1095.32
1096.54
1092.94
1088.02
1095.41
1095.4
1095.34
1095.09
1094.51
1094.23
1094.62
1094.87
1094.95
1094.96
1094.96
1094.92
1094.88
1094.85
1094.84
1094.86
1094.88
1094.9
1094.92
1094.96
1094.97
1094.96
1094.93
1094.96
1094.96
1094.97
1094.98
1095.02
1095.11
1095.16
1095.12
1095.05
1095.01
1095
1094.98
1094.98
1094.98
1095
1095.04
1095.17
1095.24
1095.17
1095.05
1101.41
1100.4
1097.64
1091.03
1086.49
1087.81
1095.88
1103.76
1106.38
1105.24
1103.34
1101.33
1099.73
1099.66
1101.11
1102.63
1102.24
1101
1100.02
1099.95
1099.72
1099.35
1105.82
1096.33
1085.69
1092.67
1103.59
1102.95
1100.83
1099.43
1098.7
1097.97
1098.98
1100.57
1102.04
1102.58
1103.01
1103.22
1103.34
1103.26
1102.75
1101.3
1100.03
1099.85
1100.34
1101.12
1101.89
1102.5
1102.98
1103.51
1103.8
1103.17
1101.27
1098.12
1096.6
1097.53
1099.05
1099.96
1100.38
1100.74
1100.87
1100.77
1100.38
1099.96
1100.24
1100.91
1101.39
1101.57
1101.55
1101.44
1101.32
1101
1100.58
1101.82
1102.65
1102.77
1102.7
1102.68
1102.6
1102.52
1102.46
1102.44
1102.44
1102.44
1102.48
1102.5
1102.49
1102.5
1102.59
1102.77
1102.83
1102.63
1102.46
1102.31
1102.25
1102.68
1103.5
1102.86
1102.15
1102.1
1102.29
1102.7
1102.91
1103.19
1103.17
1103.15
1103.01
1102.88
1102.84
1102.84
1102.83
1102.72
1102.59
1102.55
1102.52
1102.36
1102.31
1102.38
1102.36
1102.34
1102.23
1102.08
1101.92
1101.9
1101.97
1101.91
1101.57
1100.93
1100.89
1101.47
1101.91
1102.1
1102.09
1101.74
1101.31
1101.18
1101.96
1102.83
1103.42
1103.36
1103.41
1103.43
1103.54
1103.51
1103.11
1102.94
1103.05
1103.42
1104.1
1104.46
1103.99
1103.02
1102.55
1102.52
1102.7
1102.52
1101.89
1102.61
1102.54
1102.51
1102.49
1102.54
1102.65
1102.79
1102.7
1102.55
1102.49
1102.41
1102.29
1102.16
1102.12
1102.21
1102.3
1102.36
1102.4
1102.43
1102.46
1102.46
1102.42
1102.39
1102.41
1102.47
1102.47
1102.51
1102.58
1102.66
1102.67
1102.62
1102.55
1102.52
1102.5
1102.51
1102.49
1102.48
1102.5
1102.54
1102.64
1102.75
1102.64
1102.58
1108.87
1107.78
1104.85
1101.13
1099.16
1102.87
1110.93
1111.89
1110.76
1109.82
1108.74
1107.24
1106.24
1107.02
1108.63
1109.51
1109.37
1108.35
1105.81
1103.04
1102.17
1106.61
1112.06
1098.12
1088.48
1106.33
1110.42
1109.3
1108.35
1107.71
1106.33
1102.91
1103.45
1105.74
1108.87
1110.05
1110.18
1108.99
1107.81
1107.45
1107.21
1107.34
1107.65
1108.28
1108.87
1109.31
1109.55
1109.55
1109.35
1109.44
1109.7
1109.71
1108.99
1107.23
1105.93
1106.11
1106.66
1106.69
1106.39
1106.59
1107.2
1107.91
1108.17
1108.01
1107.94
1108.17
1108.51
1108.71
1108.83
1108.79
1108.68
1107.61
1106.12
1108.25
1110.49
1110.25
1110.29
1110.11
1110.06
1109.98
1109.95
1109.94
1109.95
1110.05
1110.24
1110.23
1110.21
1110.47
1110.77
1110.89
1110.55
1110.17
1109.95
1109.86
1109.8
1110.38
1110.86
1110.41
1109.8
1110.1
1110.76
1111.74
1112.32
1112.01
1111.03
1110.4
1110.4
1110.47
1110.56
1110.53
1110.39
1110.18
1110.04
1109.98
1109.94
1109.91
1109.9
1109.81
1109.88
1109.82
1109.79
1109.63
1109.41
1109.23
1108.99
1108.73
1108.48
1108.52
1108.77
1109.2
1109.49
1109.63
1109.7
1109.7
1109.61
1109.45
1109.4
1109.71
1110.16
1110.53
1110.32
1110.26
1111.03
1111.6
1111.66
1111.89
1111.95
1111.66
1111.61
1111.12
1110.46
1110.02
1109.91
1109.93
1110.04
1110.14
1110.13
1110.18
1110.07
1109.99
1109.98
1109.98
1110.19
1110.48
1110.42
1110.02
1109.8
1109.65
1109.51
1109.36
1109.37
1109.52
1109.7
1109.8
1109.85
1109.88
1109.9
1109.92
1109.92
1109.91
1109.94
1109.95
1109.94
1110.08
1110.16
1110.15
1110.1
1110.07
1110.04
1110.02
1109.99
1109.97
1109.96
1109.97
1109.98
1110.04
1110.16
1110.17
1110.15
1110.05
1114.19
1113.68
1112.99
1114.9
1118.4
1120.06
1119.51
1117.83
1116.76
1115.74
1114.27
1112.63
1112.3
1113.92
1115.92
1116.93
1116.23
1114.1
1111.48
1109.6
1109.8
1114.47
1119.86
1117.59
1114.01
1117.21
1117.13
1116.97
1116.73
1116.03
1111.96
1106.65
1107
1110.74
1115.09
1115.8
1114.61
1112.48
1111.69
1111.93
1113.43
1114.91
1115.87
1116.49
1116.73
1116.95
1116.67
1115.21
1114.81
1115.82
1116.52
1116.9
1116.99
1116.82
1116.35
1115.95
1115.56
1114.4
1113.03
1113.17
1114.21
1115.19
1115.53
1115.41
1115.22
1115.34
1115.52
1115.69
1115.71
1115.68
1115.41
1113.33
1109.89
1113.28
1116.81
1116.94
1116.76
1117.19
1117.43
1117.57
1117.66
1117.75
1117.9
1118.56
1119.66
1119.2
1119.25
1119.64
1119.58
1118.8
1117.97
1117.55
1117.42
1117.38
1117.62
1118.24
1118.9
1118.26
1118.45
1118.57
1119.3
1119.34
1118.61
1117.69
1117.2
1117.31
1117.65
1118.15
1118.21
1117.86
1117.52
1117.56
1117.48
1117.45
1117.44
1117.44
1117.35
1117.34
1117.14
1117.16
1117
1116.91
1116.7
1116.22
1115.52
1115.64
1116.11
1116.48
1116.72
1116.87
1116.98
1117.11
1117.2
1117.25
1117.25
1117.19
1117.06
1116.98
1117.31
1117.69
1117.64
1117.54
1119.56
1120.08
1119.71
1120.5
1120.56
1119.82
1119.54
1118.65
1117.76
1117.47
1117.43
1117.44
1117.52
1117.65
1117.89
1118.16
1118.02
1117.77
1117.57
1117.68
1117.93
1118.34
1117.88
1117.12
1116.91
1116.91
1116.93
1116.9
1116.85
1116.92
1117.09
1117.23
1117.3
1117.35
1117.37
1117.38
1117.39
1117.39
1117.4
1117.4
1117.45
1117.52
1117.57
1117.57
1117.57
1117.54
1117.5
1117.44
1117.42
1117.41
1117.41
1117.41
1117.43
1117.47
1117.51
1117.68
1117.58
1117.58
1106.52
1112.14
1120.79
1128.83
1132.6
1130.33
1126.99
1124.91
1123.78
1122.89
1121.58
1120.53
1121.73
1123.56
1124.28
1123.83
1122.58
1119.87
1117.33
1117.94
1122.5
1125.8
1126.06
1125.34
1124.92
1124.8
1124.7
1124.53
1124.19
1122.83
1118.49
1113.56
1114.71
1118.63
1121.95
1121.02
1120.24
1120.61
1121.49
1122.41
1123.23
1123.47
1123.74
1123.53
1123.68
1123.71
1123.62
1123.47
1123.61
1123.9
1124.26
1124.45
1124.46
1124.33
1124.11
1123.94
1123.59
1122.74
1121.9
1121.95
1122.3
1122.64
1122.68
1122.44
1122.35
1123.27
1124.17
1124.37
1124.31
1124.17
1123.64
1119.01
1113.13
1117.61
1123.48
1123.53
1122.87
1122.58
1122.96
1124.12
1125.19
1125.42
1125.72
1127.3
1129.74
1128.35
1127.24
1126.48
1125.56
1124.9
1124.73
1124.72
1124.78
1124.9
1125.36
1126.37
1126.49
1126.1
1125.85
1126.02
1125.84
1125.4
1124.99
1124.76
1124.59
1124.46
1124.53
1124.49
1125.32
1124.79
1124.37
1124.81
1124.97
1124.91
1124.89
1124.9
1124.94
1124.81
1124.54
1124.25
1124.07
1123.95
1123.83
1123
1122.17
1122.69
1123.89
1124.15
1124.18
1124.16
1124.32
1124.52
1124.67
1124.73
1124.74
1124.71
1124.65
1124.6
1124.59
1125.09
1124.82
1124.04
1127.86
1128.47
1126.57
1126.84
1127.14
1128.65
1131.02
1130.43
1125.28
1124.88
1124.83
1124.88
1124.91
1125.03
1125.13
1125.12
1125
1124.97
1124.98
1125.07
1125.18
1125.53
1125.03
1124.44
1124.36
1124.44
1124.48
1124.5
1124.51
1124.57
1124.67
1124.74
1124.78
1124.81
1124.82
1124.83
1124.83
1124.84
1124.83
1124.83
1124.84
1124.87
1124.96
1125.02
1124.98
1124.91
1124.86
1124.86
1124.86
1124.85
1124.85
1124.85
1124.85
1124.88
1124.96
1125.02
1125.25
1125.03
1102.42
1104.15
1114.82
1134.36
1140.05
1137.01
1133.55
1131.88
1130.97
1130.23
1128.97
1129.15
1130.9
1132.02
1132.02
1131.85
1130.97
1127.98
1122.8
1125.32
1133.17
1135.33
1134.03
1133.06
1132.57
1132.35
1132.23
1132.06
1131.69
1130.66
1128.15
1125.4
1126.33
1128.35
1128.85
1128.58
1129.29
1130.54
1131.49
1131.86
1131.93
1131.88
1131.34
1130.18
1129.64
1130.57
1131.52
1131.88
1132.02
1132.03
1131.99
1131.81
1131.43
1131.02
1131
1131.11
1131.14
1131.05
1130.96
1130.93
1130.75
1130.31
1129.23
1127.54
1128.7
1131.51
1132.66
1132.54
1132.35
1132.21
1131.97
1129.83
1123.9
1129.41
1131.73
1131.23
1130.11
1129.04
1129.3
1130.31
1131.43
1132.11
1132.78
1135.54
1137.59
1135.36
1133.13
1132.21
1131.76
1131.73
1131.95
1132.16
1132.35
1132.65
1133.53
1135.07
1134.72
1133.7
1133.23
1133.01
1132.72
1132.51
1132.37
1132.31
1132.25
1132.15
1131.9
1131.76
1132.5
1134.86
1131.3
1132.65
1132.73
1132.58
1132.43
1132.39
1132.29
1132.33
1132.33
1132.21
1132.1
1131.9
1131.32
1130.29
1129.29
1130.34
1131.21
1131.47
1131.4
1131.11
1131.27
1132.19
1132.26
1132.24
1132.21
1132.18
1132.16
1132.15
1132.16
1132.11
1131.21
1128.83
1132.51
1134.93
1133.37
1133.18
1133.71
1136.13
1141.51
1141.47
1134.6
1131.98
1132.28
1132.34
1132.42
1132.35
1132.14
1132.04
1132.15
1132.26
1132.31
1132.36
1132.54
1132.65
1132.21
1131.89
1131.98
1132.07
1132.12
1132.11
1132.04
1132.05
1132.14
1132.2
1132.23
1132.24
1132.24
1132.25
1132.25
1132.26
1132.26
1132.26
1132.27
1132.29
1132.37
1132.46
1132.42
1132.33
1132.29
1132.28
1132.28
1132.28
1132.28
1132.28
1132.3
1132.34
1132.43
1132.55
1132.48
1132.59
1114.67
1110.41
1119.29
1136.5
1142.16
1140.64
1139.41
1138.52
1137.99
1136.41
1135.27
1132.63
1137.61
1139.15
1139.55
1139.49
1139.14
1136.56
1129.52
1132.23
1142.26
1145.38
1143.51
1141.59
1140.39
1139.84
1139.59
1139.37
1139
1138.18
1136.77
1135.58
1136.02
1136.94
1137.41
1137.54
1137.71
1138.46
1139.03
1139.42
1139.48
1139.45
1138.54
1136.91
1136.56
1138.03
1139.01
1139.44
1139.58
1139.68
1139.56
1138.97
1138.18
1138.19
1138.48
1138.68
1138.65
1138.62
1138.69
1138.71
1138.56
1137.93
1135.75
1133.12
1134.95
1138.59
1139.76
1139.77
1139.71
1139.64
1139.53
1138.61
1136.53
1138.22
1139.21
1139.22
1138.94
1138.21
1137.85
1138.24
1138.72
1139.15
1139.89
1141.49
1142.14
1140.21
1139.17
1138.94
1138.87
1139.36
1140.05
1140.72
1141.03
1141.61
1143.12
1144.94
1143.78
1141.32
1140.48
1139.97
1139.92
1139.85
1139.91
1139.85
1139.79
1139.77
1139.73
1139.67
1140.92
1140.71
1138.23
1139.48