/*--------------------------------*- C++ -*----------------------------------*\
  =========                 |
  \\      /  F ield         | OpenFOAM: The Open Source CFD Toolbox
   \\    /   O peration     | Website:  https://openfoam.org
    \\  /    A nd           | Version:  8
     \\/     M anipulation  |
\*---------------------------------------------------------------------------*/
FoamFile
{
    version     2.0;
    format      ascii;
    class       volVectorField;
    location    "600";
    object      U;
}
// * * * * * * * * * * * * * * * * * * * * * * * * * * * * * * * * * * * * * //

dimensions      [0 1 -1 0 0 0 0];

internalField   nonuniform List<vector> 
20000
(
(1.02907e-07 0 -1.26518e-06)
(-7.9996e-08 0 -5.48848e-07)
(-9.62417e-07 0 5.06678e-08)
(-1.65485e-06 0 -2.3532e-07)
(-1.36356e-06 0 -5.62579e-07)
(-7.68487e-07 0 -2.97247e-07)
(-6.46548e-07 0 4.16938e-08)
(-1.02637e-06 0 2.65666e-07)
(-1.76569e-06 0 4.22214e-07)
(-2.73171e-06 0 4.93624e-07)
(-3.57494e-06 0 2.82898e-07)
(-3.02896e-06 0 -9.19407e-07)
(1.10729e-06 0 -3.3797e-06)
(-2.48508e-06 0 6.79081e-06)
(-3.32212e-05 0 2.38081e-05)
(-8.14077e-05 0 2.44122e-05)
(-6.75951e-05 0 -3.82813e-05)
(8.50626e-06 0 -3.8872e-05)
(2.13777e-05 0 2.25612e-05)
(-2.41921e-05 0 1.89174e-05)
(-4.92344e-05 0 3.57472e-06)
(-5.46283e-05 0 5.75729e-07)
(-5.58105e-05 0 3.03618e-07)
(-5.66425e-05 0 7.29823e-07)
(-5.81889e-05 0 1.24644e-06)
(-5.99828e-05 0 1.3014e-06)
(-6.11918e-05 0 3.8574e-07)
(-6.01232e-05 0 -1.22548e-06)
(-5.74676e-05 0 -1.97336e-06)
(-5.42058e-05 0 -3.13648e-06)
(-5.08021e-05 0 -3.57294e-06)
(-4.68256e-05 0 -4.46439e-06)
(-4.04083e-05 0 -4.75287e-06)
(-3.34537e-05 0 -3.83101e-06)
(-2.8495e-05 0 -2.11401e-06)
(-2.66551e-05 0 -6.95995e-07)
(-2.70388e-05 0 -9.67719e-08)
(-2.7799e-05 0 -5.69955e-07)
(-2.70534e-05 0 -1.83489e-06)
(-2.39879e-05 0 -3.10974e-06)
(-1.97735e-05 0 -2.89298e-06)
(-1.69082e-05 0 -1.14513e-06)
(-1.73416e-05 0 1.30774e-06)
(-2.14948e-05 0 3.74573e-06)
(-2.93345e-05 0 5.70934e-06)
(-3.9332e-05 0 6.68251e-06)
(-5.00523e-05 0 6.30619e-06)
(-5.87189e-05 0 4.51179e-06)
(-6.44937e-05 0 2.18114e-06)
(-6.76309e-05 0 -3.28969e-07)
(-6.59919e-05 0 -2.78141e-06)
(-5.98263e-05 0 -4.30423e-06)
(-5.11465e-05 0 -3.92878e-06)
(-4.277e-05 0 -3.10886e-06)
(-3.40964e-05 0 -4.07162e-06)
(-2.12541e-05 0 -8.81783e-06)
(-2.08295e-05 0 3.71224e-06)
(-3.34097e-05 0 1.16253e-06)
(-3.50887e-05 0 -4.77486e-06)
(-3.0667e-05 0 -1.49202e-06)
(-2.98584e-05 0 1.19965e-07)
(-3.12764e-05 0 1.10171e-06)
(-3.53499e-05 0 2.77965e-06)
(-4.338e-05 0 4.3568e-06)
(-5.42489e-05 0 2.73887e-06)
(-6.19244e-05 0 -2.50447e-06)
(-6.14448e-05 0 -5.50864e-06)
(-5.34063e-05 0 -7.3686e-06)
(-3.94875e-05 0 -9.20191e-06)
(-2.70038e-05 0 -4.67664e-06)
(-2.23792e-05 0 -7.23761e-07)
(-2.41473e-05 0 2.04279e-06)
(-3.09824e-05 0 4.53853e-06)
(-4.03981e-05 0 4.69151e-06)
(-4.81322e-05 0 2.89413e-06)
(-5.25326e-05 0 1.38685e-06)
(-5.46019e-05 0 5.59557e-07)
(-5.54107e-05 0 8.0208e-08)
(-5.59083e-05 0 1.11081e-07)
(-5.92135e-05 0 2.43771e-06)
(-7.64643e-05 0 1.28049e-05)
(1.28128e-06 0 -9.52395e-05)
(-7.74253e-05 0 0.00016688)
(-0.000148626 0 -0.000102519)
(-6.80738e-05 0 1.76957e-05)
(-8.90447e-05 0 1.65356e-06)
(-8.56499e-05 0 -5.31341e-06)
(-7.43931e-05 0 -5.6923e-06)
(-6.44915e-05 0 -3.86228e-06)
(-5.75094e-05 0 -2.70924e-06)
(-5.06221e-05 0 -3.70861e-06)
(-3.93734e-05 0 -7.06494e-06)
(-2.39432e-05 0 -8.01653e-06)
(-1.19726e-05 0 -3.76813e-06)
(-7.16956e-06 0 -9.38343e-07)
(-6.25526e-06 0 9.62062e-08)
(-7.24641e-06 0 1.02426e-06)
(-9.89094e-06 0 2.01949e-06)
(-1.1896e-05 0 1.02149e-06)
(-1.18131e-05 0 2.66994e-07)
(-1.14253e-05 0 3.65895e-07)
(-1.13577e-05 0 9.98742e-08)
(-1.17089e-05 0 5.7309e-07)
(-1.35213e-05 0 1.47029e-06)
(-1.77518e-05 0 2.87383e-06)
(-2.4407e-05 0 3.96737e-06)
(-3.11815e-05 0 2.99104e-06)
(-3.4846e-05 0 7.80463e-07)
(-3.37137e-05 0 -1.93394e-06)
(-2.66581e-05 0 -5.55775e-06)
(-1.5224e-05 0 -6.39159e-06)
(-5.67157e-06 0 -3.46631e-06)
(-1.23264e-06 0 -1.14912e-06)
(2.54787e-07 0 -4.03053e-07)
(8.44114e-07 0 -1.98685e-07)
(1.14678e-06 0 -1.47305e-07)
(1.02638e-06 0 -5.37421e-08)
(2.76742e-07 0 8.39825e-08)
(-7.18413e-07 0 6.30572e-08)
(-1.38563e-06 0 -3.59672e-08)
(-1.67271e-06 0 -9.43716e-08)
(-1.75476e-06 0 -1.2928e-07)
(-1.77693e-06 0 -1.50864e-07)
(-1.88395e-06 0 -1.14748e-07)
(-2.25527e-06 0 6.60105e-09)
(-2.93138e-06 0 1.46714e-07)
(-3.67414e-06 0 1.85473e-07)
(-4.20528e-06 0 1.04336e-07)
(-4.41709e-06 0 -2.12144e-08)
(-4.29018e-06 0 -1.82907e-07)
(-3.7648e-06 0 -4.05895e-07)
(-2.89637e-06 0 -5.68563e-07)
(-2.1204e-06 0 -4.17588e-07)
(-2.07379e-06 0 4.09399e-08)
(-3.76959e-06 0 1.17128e-06)
(-1.07662e-05 0 4.59774e-06)
(-2.63828e-05 0 8.70453e-06)
(-4.20378e-05 0 4.43334e-06)
(-4.68633e-05 0 -1.00444e-06)
(-4.32423e-05 0 -3.06912e-06)
(-3.83695e-05 0 -2.45066e-06)
(-3.57057e-05 0 -1.21736e-06)
(-3.51001e-05 0 -6.23439e-07)
(-3.50792e-05 0 -1.01087e-06)
(-3.32312e-05 0 -2.23004e-06)
(-2.81744e-05 0 -3.82422e-06)
(-2.03887e-05 0 -3.50224e-06)
(-1.26206e-05 0 -2.69687e-06)
(-7.40427e-06 0 -1.59542e-06)
(-4.80212e-06 0 -6.75224e-07)
(-4.15562e-06 0 -3.58997e-08)
(-4.90958e-06 0 6.3242e-07)
(-8.17552e-06 0 2.34985e-06)
(-1.67482e-05 0 5.84104e-06)
(-3.02581e-05 0 7.60468e-06)
(-3.93256e-05 0 2.90827e-06)
(-3.75667e-05 0 -1.17951e-06)
(-2.76518e-05 0 -2.91383e-06)
(-1.62242e-05 0 -1.69451e-06)
(-8.04587e-06 0 -1.07951e-06)
(-2.35599e-06 0 -1.95823e-06)
(1.3815e-06 0 -7.96531e-07)
(2.45725e-06 0 1.93011e-07)
(1.92573e-06 0 4.16687e-07)
(1.46832e-06 0 1.10402e-07)
(1.26703e-06 0 9.44229e-08)
(1.25588e-06 0 7.56826e-09)
(1.36886e-06 0 -4.50762e-09)
(1.65054e-06 0 -8.96956e-08)
(2.15678e-06 0 -1.51737e-07)
(2.76717e-06 0 -2.18731e-07)
(3.09167e-06 0 -2.00361e-07)
(3.05243e-06 0 -1.34344e-07)
(2.85395e-06 0 -1.23124e-07)
(2.76637e-06 0 -1.78679e-07)
(3.05332e-06 0 -3.18439e-07)
(3.72468e-06 0 -2.58608e-07)
(2.84894e-06 0 1.46557e-06)
(1.03002e-06 0 4.04508e-07)
(1.779e-06 0 -1.41247e-06)
(3.80281e-06 0 -8.40657e-07)
(4.93782e-06 0 -5.18439e-07)
(4.50287e-06 0 5.94114e-07)
(1.15778e-07 0 2.84912e-06)
(-1.58414e-05 0 1.03064e-05)
(-5.30012e-06 0 -2.59868e-05)
(1.05781e-05 0 3.67203e-06)
(1.37936e-06 0 3.54464e-07)
(-1.36356e-06 0 -1.72308e-07)
(-1.95181e-06 0 -2.4236e-07)
(-1.70366e-06 0 -3.07959e-07)
(-1.20712e-06 0 -3.04416e-07)
(-7.52158e-07 0 -1.80832e-07)
(-5.06998e-07 0 -6.91498e-08)
(-4.78416e-07 0 6.00424e-09)
(-6.45977e-07 0 7.15721e-08)
(-9.71228e-07 0 8.47478e-09)
(-1.10136e-06 0 -2.07799e-07)
(-1.03801e-06 0 -4.63639e-07)
(-5.18878e-07 0 -5.59853e-07)
(9.41337e-08 0 -2.94618e-06)
(-1.24263e-07 0 -1.18202e-06)
(-7.91763e-07 0 -6.39064e-09)
(-1.74822e-06 0 -3.39315e-07)
(-1.73449e-06 0 -2.15726e-06)
(-8.20502e-07 0 -1.1742e-06)
(-7.46826e-07 0 1.5594e-07)
(-1.55922e-06 0 1.04373e-06)
(-2.66611e-06 0 1.3282e-06)
(-3.6336e-06 0 1.41026e-06)
(-4.6486e-06 0 1.10011e-06)
(-4.94323e-06 0 -2.18716e-06)
(8.20028e-06 0 -1.97939e-05)
(1.05423e-05 0 2.38146e-05)
(-4.78838e-05 0 9.49487e-05)
(-0.000103737 0 5.60404e-05)
(-6.45904e-05 0 -0.000125329)
(-1.6091e-05 0 -8.06299e-05)
(-1.81489e-05 0 4.67954e-05)
(-2.17966e-05 0 3.67357e-05)
(-2.20645e-05 0 6.4268e-06)
(-2.19905e-05 0 8.60964e-07)
(-2.19802e-05 0 7.08128e-07)
(-2.20605e-05 0 1.54422e-06)
(-2.17677e-05 0 2.32802e-06)
(-2.12375e-05 0 2.44874e-06)
(-2.14045e-05 0 1.22469e-06)
(-2.30386e-05 0 -1.17399e-06)
(-2.53414e-05 0 -3.10549e-06)
(-2.73703e-05 0 -5.91009e-06)
(-2.79445e-05 0 -7.9546e-06)
(-2.69308e-05 0 -9.73894e-06)
(-2.60646e-05 0 -9.81855e-06)
(-2.59517e-05 0 -7.68926e-06)
(-2.5943e-05 0 -4.69978e-06)
(-2.52604e-05 0 -2.43925e-06)
(-2.37047e-05 0 -1.70854e-06)
(-2.19046e-05 0 -2.50397e-06)
(-2.07949e-05 0 -4.49185e-06)
(-2.03639e-05 0 -6.94275e-06)
(-1.89588e-05 0 -7.70068e-06)
(-1.55713e-05 0 -4.65461e-06)
(-1.20292e-05 0 1.19811e-06)
(-1.03519e-05 0 7.42508e-06)
(-1.04896e-05 0 1.17968e-05)
(-1.13979e-05 0 1.377e-05)
(-1.19573e-05 0 1.25843e-05)
(-1.14366e-05 0 8.49498e-06)
(-1.06134e-05 0 4.22456e-06)
(-1.14215e-05 0 5.35354e-07)
(-1.50248e-05 0 -2.67085e-06)
(-2.12611e-05 0 -4.32766e-06)
(-2.92746e-05 0 -2.75764e-06)
(-3.77084e-05 0 -1.25892e-06)
(-4.47969e-05 0 -5.02962e-06)
(-4.92803e-05 0 -1.78921e-05)
(-4.40236e-05 0 -1.99021e-06)
(-3.08115e-05 0 -6.30118e-06)
(-2.14331e-05 0 -1.31905e-05)
(-1.79363e-05 0 -3.91613e-06)
(-1.77082e-05 0 4.69492e-07)
(-1.87368e-05 0 2.73057e-06)
(-1.96227e-05 0 5.64026e-06)
(-1.93902e-05 0 8.00151e-06)
(-2.03983e-05 0 6.43068e-06)
(-2.81693e-05 0 5.16707e-07)
(-4.27095e-05 0 -3.66452e-06)
(-5.84069e-05 0 -8.22185e-06)
(-6.81799e-05 0 -1.70858e-05)
(-6.44729e-05 0 -1.63796e-05)
(-5.16371e-05 0 -8.89987e-06)
(-3.783e-05 0 -3.22258e-06)
(-2.5822e-05 0 4.02322e-06)
(-1.73827e-05 0 5.98967e-06)
(-1.21391e-05 0 3.9856e-06)
(-9.70377e-06 0 2.16014e-06)
(-9.28472e-06 0 1.30023e-06)
(-1.04617e-05 0 1.1134e-06)
(-1.32435e-05 0 1.94872e-06)
(-1.64681e-05 0 6.07814e-06)
(-1.18382e-05 0 1.89648e-05)
(-8.33337e-05 0 -0.000114052)
(-3.39032e-05 0 0.000205703)
(1.0473e-05 0 -0.000123094)
(-5.58521e-05 0 1.8868e-05)
(-3.5061e-05 0 -1.28278e-06)
(-2.92052e-05 0 -1.19681e-05)
(-2.57306e-05 0 -1.34772e-05)
(-2.17889e-05 0 -9.46429e-06)
(-1.9594e-05 0 -5.71815e-06)
(-2.10875e-05 0 -5.43229e-06)
(-2.78146e-05 0 -9.14011e-06)
(-3.6879e-05 0 -1.16343e-05)
(-3.96963e-05 0 -8.7467e-06)
(-3.48139e-05 0 -5.18259e-06)
(-2.89442e-05 0 -2.00202e-06)
(-2.54433e-05 0 1.1903e-06)
(-2.38242e-05 0 4.0494e-06)
(-2.24034e-05 0 1.94946e-06)
(-2.0656e-05 0 5.80268e-07)
(-1.92592e-05 0 5.81943e-07)
(-1.84612e-05 0 2.32073e-07)
(-1.90824e-05 0 1.91156e-06)
(-2.1446e-05 0 4.30114e-06)
(-2.292e-05 0 5.51164e-06)
(-2.0124e-05 0 5.12996e-06)
(-1.46754e-05 0 3.29849e-06)
(-1.11035e-05 0 7.05869e-07)
(-1.14376e-05 0 -2.6383e-06)
(-1.52014e-05 0 -8.50626e-06)
(-1.65327e-05 0 -1.40756e-05)
(-9.23846e-06 0 -1.31269e-05)
(-4.99216e-07 0 -4.99504e-06)
(2.41828e-06 0 -1.04219e-06)
(2.41664e-06 0 -1.56501e-07)
(1.74729e-06 0 -1.12845e-09)
(9.08565e-07 0 1.1533e-07)
(1.63294e-07 0 2.13857e-07)
(-3.44983e-07 0 9.98576e-08)
(-6.65555e-07 0 -9.42726e-08)
(-9.12839e-07 0 -1.79517e-07)
(-1.15154e-06 0 -2.48132e-07)
(-1.40269e-06 0 -3.17676e-07)
(-1.73254e-06 0 -2.84022e-07)
(-2.22556e-06 0 1.63259e-08)
(-2.73668e-06 0 2.66526e-07)
(-3.04289e-06 0 3.39957e-07)
(-3.22538e-06 0 2.39914e-07)
(-3.53017e-06 0 1.19191e-07)
(-4.12782e-06 0 -2.92244e-08)
(-5.17334e-06 0 -2.59495e-07)
(-6.75298e-06 0 -4.6764e-07)
(-9.01204e-06 0 -1.6153e-07)
(-1.33587e-05 0 1.6831e-06)
(-2.1569e-05 0 5.86365e-06)
(-2.94685e-05 0 1.05803e-05)
(-2.78933e-05 0 1.26557e-05)
(-1.98696e-05 0 4.79475e-06)
(-1.545e-05 0 -2.99105e-06)
(-1.631e-05 0 -5.02832e-06)
(-2.09144e-05 0 -2.29252e-06)
(-2.7887e-05 0 9.03649e-07)
(-3.58853e-05 0 2.08925e-06)
(-4.43378e-05 0 1.41872e-06)
(-5.32622e-05 0 -1.41463e-06)
(-5.77036e-05 0 -7.82621e-06)
(-5.04703e-05 0 -1.37311e-05)
(-3.50651e-05 0 -1.29875e-05)
(-2.19773e-05 0 -7.87163e-06)
(-1.55391e-05 0 -2.92675e-06)
(-1.43065e-05 0 2.94392e-07)
(-1.67888e-05 0 3.35365e-06)
(-2.17117e-05 0 7.7904e-06)
(-2.55227e-05 0 1.3329e-05)
(-2.38362e-05 0 1.36367e-05)
(-1.68211e-05 0 2.65584e-06)
(-9.16498e-06 0 -4.66326e-06)
(-4.67148e-06 0 -6.32646e-06)
(-2.38828e-06 0 -3.85181e-06)
(-4.26328e-07 0 -2.56157e-06)
(8.79392e-07 0 -3.50352e-06)
(2.16907e-06 0 -2.00351e-06)
(4.01581e-06 0 2.30604e-07)
(4.58449e-06 0 1.31943e-06)
(3.74332e-06 0 9.87437e-07)
(2.85388e-06 0 6.25864e-07)
(2.25255e-06 0 2.83931e-07)
(2.05812e-06 0 2.91197e-08)
(2.14622e-06 0 -2.31205e-07)
(2.48674e-06 0 -5.53762e-07)
(2.97212e-06 0 -8.5912e-07)
(3.50282e-06 0 -8.74721e-07)
(3.89254e-06 0 -6.70923e-07)
(4.0775e-06 0 -5.28213e-07)
(4.22382e-06 0 -5.81489e-07)
(4.55159e-06 0 -8.71603e-07)
(4.89243e-06 0 -4.90702e-07)
(4.66136e-06 0 3.42304e-06)
(3.9974e-06 0 1.25486e-06)
(4.6046e-06 0 -3.83957e-06)
(7.58112e-06 0 -4.00267e-06)
(1.06803e-05 0 -2.64243e-06)
(7.96927e-06 0 3.81543e-06)
(3.01953e-06 0 5.45234e-06)
(1.35768e-05 0 7.5355e-06)
(6.8818e-06 0 -3.4376e-05)
(-6.84486e-06 0 2.17609e-06)
(-1.35748e-06 0 -2.48596e-07)
(-5.45153e-07 0 -4.51876e-07)
(-5.99786e-07 0 -4.05979e-07)
(-8.56334e-07 0 -4.33254e-07)
(-1.1878e-06 0 -4.07853e-07)
(-1.43316e-06 0 -2.59729e-07)
(-1.56622e-06 0 -1.46245e-07)
(-1.63624e-06 0 -1.13424e-07)
(-1.53859e-06 0 -1.45887e-07)
(-1.17306e-06 0 -3.63711e-07)
(-7.41687e-07 0 -7.52299e-07)
(-4.13785e-07 0 -1.1015e-06)
(-1.33674e-07 0 -1.34038e-06)
(-4.81878e-08 0 -3.69188e-06)
(-5.67054e-07 0 -1.28133e-06)
(-1.79415e-06 0 3.94809e-08)
(-1.52251e-06 0 -1.95076e-06)
(1.35622e-06 0 -5.84336e-06)
(4.37739e-06 0 -3.63141e-06)
(3.5229e-06 0 1.82492e-06)
(-6.36292e-07 0 3.52783e-06)
(-3.95202e-06 0 2.92897e-06)
(-6.41611e-06 0 3.07493e-06)
(-1.08968e-05 0 4.78639e-06)
(-2.16152e-05 0 4.78954e-06)
(3.89859e-05 0 -0.000101824)
(8.48611e-05 0 5.37737e-05)
(-3.83341e-05 0 0.000240178)
(-8.62768e-05 0 8.09467e-06)
(-2.55844e-05 0 -0.000183077)
(-3.25524e-05 0 -7.04442e-05)
(-3.74274e-05 0 3.67254e-05)
(-2.14267e-05 0 2.83883e-05)
(-1.36854e-05 0 3.69198e-06)
(-1.07447e-05 0 -1.02548e-06)
(-8.205e-06 0 -3.27304e-07)
(-6.24978e-06 0 8.27249e-07)
(-4.87668e-06 0 1.63641e-06)
(-4.0788e-06 0 1.99296e-06)
(-3.75625e-06 0 1.49384e-06)
(-3.71348e-06 0 9.41697e-10)
(-4.07525e-06 0 -1.97332e-06)
(-5.44813e-06 0 -4.45894e-06)
(-7.7503e-06 0 -7.32829e-06)
(-1.00107e-05 0 -9.38861e-06)
(-1.18034e-05 0 -9.00898e-06)
(-1.34916e-05 0 -6.67015e-06)
(-1.4694e-05 0 -4.80155e-06)
(-1.44296e-05 0 -4.23402e-06)
(-1.25334e-05 0 -4.69354e-06)
(-9.95351e-06 0 -5.28486e-06)
(-7.92335e-06 0 -6.18992e-06)
(-6.83816e-06 0 -8.13944e-06)
(-6.12625e-06 0 -9.98271e-06)
(-5.19901e-06 0 -7.42693e-06)
(-4.22514e-06 0 -3.59738e-07)
(-5.30143e-06 0 8.60886e-06)
(-8.85392e-06 0 1.36868e-05)
(-1.09856e-05 0 1.3854e-05)
(-9.4356e-06 0 1.07421e-05)
(-6.332e-06 0 6.56586e-06)
(-4.28984e-06 0 3.61219e-06)
(-3.78236e-06 0 2.01569e-06)
(-4.75874e-06 0 1.35181e-06)
(-7.83406e-06 0 2.61755e-06)
(-1.35452e-05 0 6.2449e-06)
(-2.0605e-05 0 7.44921e-06)
(-2.72492e-05 0 7.81506e-07)
(-3.43983e-05 0 -1.43909e-05)
(-3.4715e-05 0 -1.64296e-05)
(-2.66827e-05 0 -1.93103e-05)
(-1.95232e-05 0 -2.03154e-05)
(-1.47697e-05 0 -7.05668e-06)
(-1.18033e-05 0 -6.37587e-07)
(-9.70169e-06 0 2.01412e-06)
(-7.33689e-06 0 4.22841e-06)
(-4.94e-06 0 6.03923e-06)
(-3.60286e-06 0 6.97987e-06)
(-3.97e-06 0 6.52621e-06)
(-6.1572e-06 0 5.09897e-06)
(-1.13124e-05 0 1.64416e-06)
(-2.32816e-05 0 -7.85667e-06)
(-4.15063e-05 0 -1.4429e-05)
(-5.57199e-05 0 -1.2889e-05)
(-5.4102e-05 0 -1.69275e-05)
(-3.74331e-05 0 -1.16772e-05)
(-1.99453e-05 0 -4.145e-06)
(-1.02983e-05 0 -6.20493e-07)
(-6.45355e-06 0 5.53977e-07)
(-5.19713e-06 0 1.23247e-06)
(-5.1422e-06 0 2.2505e-06)
(-5.8098e-06 0 4.11434e-06)
(-6.58745e-06 0 7.50549e-06)
(-6.25765e-06 0 1.15034e-05)
(-2.35177e-05 0 -2.00344e-05)
(-1.45268e-05 0 5.04133e-05)
(-3.65201e-06 0 -2.53466e-05)
(-1.84896e-05 0 1.04607e-06)
(-1.82793e-05 0 -4.96139e-06)
(-2.18194e-05 0 -1.07523e-05)
(-2.63727e-05 0 -1.35366e-05)
(-2.78873e-05 0 -1.15572e-05)
(-2.60308e-05 0 -7.26104e-06)
(-2.44269e-05 0 -3.50688e-06)
(-2.6012e-05 0 -2.20448e-06)
(-3.13805e-05 0 -3.49885e-06)
(-3.88665e-05 0 -5.85659e-06)
(-4.45883e-05 0 -6.45309e-06)
(-4.51621e-05 0 -5.14335e-06)
(-4.07524e-05 0 -2.39806e-06)
(-3.34515e-05 0 6.04354e-07)
(-2.5959e-05 0 -6.82507e-07)
(-2.06521e-05 0 -7.64804e-07)
(-1.73649e-05 0 -6.3803e-07)
(-1.52057e-05 0 -6.92778e-07)
(-1.33227e-05 0 1.30359e-06)
(-1.02552e-05 0 3.39315e-06)
(-6.08626e-06 0 2.98326e-06)
(-2.87027e-06 0 1.24445e-06)
(-1.51609e-06 0 3.00901e-07)
(-1.21332e-06 0 -1.30103e-07)
(-1.70835e-06 0 -8.89064e-07)
(-4.13817e-06 0 -3.88061e-06)
(-8.19516e-06 0 -1.31458e-05)
(-2.69337e-06 0 -2.65378e-05)
(6.17283e-06 0 -8.65141e-06)
(5.39267e-06 0 9.86571e-07)
(2.39073e-06 0 1.07609e-06)
(1.01084e-06 0 6.91377e-07)
(3.00408e-07 0 4.43645e-07)
(-1.91263e-07 0 1.50225e-07)
(-6.45192e-07 0 -5.97841e-08)
(-1.06858e-06 0 -2.24922e-07)
(-1.32586e-06 0 -2.57799e-07)
(-1.54503e-06 0 -2.76089e-07)
(-1.90036e-06 0 -3.57477e-07)
(-2.60591e-06 0 -2.52799e-07)
(-3.86768e-06 0 2.4223e-07)
(-5.01801e-06 0 2.92827e-07)
(-5.46881e-06 0 2.69538e-07)
(-5.61741e-06 0 2.99477e-07)
(-5.79941e-06 0 3.83304e-07)
(-6.12288e-06 0 4.80107e-07)
(-6.65471e-06 0 5.68594e-07)
(-7.74373e-06 0 7.74161e-07)
(-1.05319e-05 0 1.90034e-06)
(-1.69431e-05 0 6.04221e-06)
(-2.49402e-05 0 1.08782e-05)
(-2.75504e-05 0 9.43214e-06)
(-2.36439e-05 0 4.13307e-06)
(-1.91204e-05 0 -1.53965e-06)
(-1.72709e-05 0 -4.67759e-06)
(-1.80572e-05 0 -3.28432e-06)
(-2.06621e-05 0 1.63672e-06)
(-2.32928e-05 0 4.95613e-06)
(-2.49261e-05 0 5.65353e-06)
(-2.68472e-05 0 5.75366e-06)
(-3.16607e-05 0 4.61658e-06)
(-4.1362e-05 0 -2.3853e-06)
(-5.44022e-05 0 -1.39125e-05)
(-6.4474e-05 0 -1.73602e-05)
(-6.76176e-05 0 -1.2515e-05)
(-6.84672e-05 0 -3.13494e-06)
(-7.3564e-05 0 5.717e-06)
(-8.01693e-05 0 9.24332e-06)
(-7.92563e-05 0 8.9808e-06)
(-6.72618e-05 0 8.00485e-06)
(-4.7356e-05 0 2.56408e-06)
(-2.61389e-05 0 -8.93565e-06)
(-1.09866e-05 0 -1.1281e-05)
(-3.6218e-06 0 -8.52137e-06)
(-6.09118e-07 0 -4.85891e-06)
(9.05724e-07 0 -3.2516e-06)
(2.00517e-06 0 -3.06499e-06)
(3.1638e-06 0 -2.44209e-06)
(4.91437e-06 0 -3.74647e-07)
(7.38529e-06 0 9.89228e-07)
(9.54633e-06 0 1.29134e-06)
(1.07537e-05 0 8.22175e-07)
(1.13764e-05 0 4.0294e-07)
(1.16606e-05 0 -4.09103e-08)
(1.16582e-05 0 -2.19375e-07)
(1.09993e-05 0 -3.75411e-07)
(9.59499e-06 0 -4.37579e-07)
(7.64383e-06 0 -3.68433e-07)
(5.66378e-06 0 -2.32569e-07)
(4.14461e-06 0 -2.21427e-07)
(3.23146e-06 0 -5.18236e-07)
(2.92765e-06 0 -1.10161e-06)
(2.92463e-06 0 -4.31223e-07)
(3.5446e-06 0 3.22867e-06)
(5.12589e-06 0 6.40496e-07)
(5.85977e-06 0 -4.82868e-06)
(5.25318e-06 0 -6.32402e-06)
(3.70344e-06 0 -3.84315e-06)
(2.09182e-06 0 6.02484e-06)
(2.38788e-06 0 3.7856e-06)
(3.78264e-06 0 -6.59796e-06)
(1.5992e-06 0 -1.41755e-05)
(-7.3695e-07 0 -3.63035e-06)
(-1.40194e-07 0 -1.38731e-06)
(-4.42026e-08 0 -5.93972e-07)
(-7.5912e-08 0 -3.08824e-07)
(-1.56292e-07 0 -1.91959e-07)
(-2.77398e-07 0 -1.28571e-07)
(-4.12335e-07 0 -9.83361e-08)
(-5.41949e-07 0 -1.19809e-07)
(-6.75882e-07 0 -2.19434e-07)
(-7.77723e-07 0 -4.51817e-07)
(-7.73516e-07 0 -8.42583e-07)
(-6.08303e-07 0 -1.24042e-06)
(-4.1296e-07 0 -1.48774e-06)
(-1.73246e-07 0 -1.76166e-06)
(-1.20859e-06 0 -3.34742e-06)
(-3.22053e-06 0 -1.26916e-06)
(-3.7763e-06 0 -8.34733e-07)
(-1.29589e-06 0 -6.63361e-06)
(3.27531e-06 0 -1.15131e-05)
(1.14478e-05 0 -1.20403e-05)
(1.64958e-05 0 3.61068e-06)
(8.05476e-06 0 1.27741e-05)
(-7.62892e-06 0 1.18657e-05)
(-2.54153e-05 0 1.39271e-05)
(-5.67754e-05 0 2.92371e-05)
(-0.000109303 0 4.20407e-05)
(-0.000107583 0 -0.000205881)
(-7.77849e-05 0 7.36673e-05)
(5.53563e-05 0 0.000200527)
(0.000168671 0 -2.53981e-05)
(6.32852e-05 0 -0.000110459)
(-3.46326e-05 0 -4.32699e-05)
(-3.48128e-05 0 9.17152e-06)
(-1.55911e-05 0 1.58926e-05)
(-1.05058e-05 0 2.90125e-07)
(-7.88375e-06 0 -4.47847e-06)
(-5.16334e-06 0 -2.46161e-06)
(-3.76579e-06 0 -4.02281e-07)
(-3.18066e-06 0 8.44803e-07)
(-2.88127e-06 0 1.38264e-06)
(-2.5353e-06 0 8.99786e-07)
(-2.04839e-06 0 -4.88022e-07)
(-1.6232e-06 0 -1.87617e-06)
(-1.46114e-06 0 -3.40065e-06)
(-1.57378e-06 0 -5.70241e-06)
(-1.97279e-06 0 -7.87939e-06)
(-2.80692e-06 0 -7.24274e-06)
(-4.10989e-06 0 -4.83298e-06)
(-5.58145e-06 0 -3.70682e-06)
(-6.92066e-06 0 -4.35958e-06)
(-7.74515e-06 0 -5.99484e-06)
(-7.55879e-06 0 -7.19609e-06)
(-6.44585e-06 0 -7.86578e-06)
(-4.2341e-06 0 -1.0061e-05)
(-1.22932e-07 0 -1.26795e-05)
(4.71302e-06 0 -9.52444e-06)
(7.56961e-06 0 -8.46926e-07)
(4.09793e-06 0 1.32893e-05)
(-3.55087e-06 0 1.75782e-05)
(-7.20477e-06 0 1.3002e-05)
(-6.67733e-06 0 8.06061e-06)
(-5.77555e-06 0 4.93267e-06)
(-5.72308e-06 0 3.48065e-06)
(-6.6703e-06 0 3.27687e-06)
(-8.67473e-06 0 4.33425e-06)
(-1.27788e-05 0 8.59993e-06)
(-2.00833e-05 0 1.47312e-05)
(-2.79911e-05 0 1.3997e-05)
(-3.39262e-05 0 5.58481e-06)
(-4.06881e-05 0 -6.94044e-06)
(-4.75244e-05 0 -1.80907e-05)
(-5.24332e-05 0 -2.15258e-05)
(-5.33936e-05 0 -2.54197e-05)
(-4.68215e-05 0 -1.52858e-05)
(-3.61665e-05 0 -8.04571e-06)
(-2.59185e-05 0 -4.48466e-06)
(-1.70676e-05 0 -1.7041e-06)
(-1.03928e-05 0 1.88629e-06)
(-7.41508e-06 0 5.93171e-06)
(-7.92344e-06 0 7.64403e-06)
(-1.02836e-05 0 7.72882e-06)
(-1.42089e-05 0 7.08723e-06)
(-2.10884e-05 0 3.90005e-06)
(-3.08957e-05 0 -8.62586e-07)
(-3.95687e-05 0 -6.86582e-06)
(-4.39833e-05 0 -2.25566e-05)
(-4.12558e-05 0 -2.62549e-05)
(-3.07821e-05 0 -1.74684e-05)
(-1.92881e-05 0 -8.22742e-06)
(-1.1979e-05 0 -2.85483e-06)
(-8.51641e-06 0 -2.96863e-08)
(-7.21032e-06 0 2.13702e-06)
(-7.12208e-06 0 4.73147e-06)
(-8.03498e-06 0 8.39691e-06)
(-1.01327e-05 0 1.19769e-05)
(-1.85702e-05 0 4.40946e-06)
(-2.00773e-05 0 1.74057e-05)
(-2.05099e-05 0 -3.75502e-06)
(-2.62946e-05 0 -5.57044e-07)
(-2.63234e-05 0 -3.89146e-06)
(-2.76915e-05 0 -7.06424e-06)
(-3.05649e-05 0 -9.72284e-06)
(-3.30947e-05 0 -1.09613e-05)
(-3.297e-05 0 -9.21965e-06)
(-3.01312e-05 0 -5.27321e-06)
(-2.64027e-05 0 -1.92066e-06)
(-2.34006e-05 0 -8.41154e-07)
(-2.211e-05 0 -1.76707e-06)
(-2.29321e-05 0 -3.37777e-06)
(-2.51066e-05 0 -4.65113e-06)
(-2.64547e-05 0 -4.69102e-06)
(-2.44106e-05 0 -4.49059e-06)
(-1.97722e-05 0 -5.26631e-06)
(-1.51988e-05 0 -3.94339e-06)
(-1.15194e-05 0 -3.22486e-06)
(-8.64088e-06 0 -3.0759e-06)
(-5.85844e-06 0 -1.75137e-06)
(-3.1008e-06 0 -2.63114e-07)
(-1.28842e-06 0 9.79471e-08)
(-5.73584e-07 0 -3.65305e-09)
(-3.8323e-07 0 -4.69797e-08)
(-4.02651e-07 0 -5.30011e-08)
(-8.41623e-07 0 3.93188e-08)
(-3.12701e-06 0 1.11328e-07)
(-7.92035e-06 0 -7.75694e-06)
(8.40215e-06 0 -5.25071e-05)
(2.79776e-05 0 -9.24527e-06)
(1.87992e-05 0 1.32679e-05)
(5.96589e-06 0 5.64784e-06)
(1.36007e-06 0 2.28254e-06)
(-8.66878e-07 0 1.06096e-06)
(-2.77285e-06 0 -1.82086e-07)
(-5.00654e-06 0 -7.22384e-07)
(-7.02631e-06 0 -1.03054e-06)
(-7.51343e-06 0 -1.53784e-06)
(-7.07957e-06 0 -1.13922e-06)
(-7.08025e-06 0 -1.07235e-06)
(-8.17798e-06 0 -4.51946e-07)
(-9.9562e-06 0 2.20836e-07)
(-9.80421e-06 0 -1.04974e-06)
(-7.67186e-06 0 -1.01371e-06)
(-5.75051e-06 0 -4.3195e-07)
(-4.46112e-06 0 -3.04119e-08)
(-3.56204e-06 0 2.80075e-07)
(-2.9597e-06 0 6.00211e-07)
(-2.76948e-06 0 1.31381e-06)
(-3.64865e-06 0 3.86836e-06)
(-7.36587e-06 0 1.08781e-05)
(-1.39179e-05 0 1.464e-05)
(-2.13506e-05 0 9.27143e-06)
(-2.83852e-05 0 2.48507e-06)
(-3.48719e-05 0 -1.51357e-06)
(-4.11177e-05 0 -3.1477e-06)
(-4.46111e-05 0 -2.59987e-06)
(-4.22171e-05 0 -7.42427e-09)
(-3.6334e-05 0 2.55874e-06)
(-3.17758e-05 0 4.38351e-06)
(-3.04789e-05 0 6.85782e-06)
(-3.2253e-05 0 9.06699e-06)
(-3.61275e-05 0 5.28274e-06)
(-4.29458e-05 0 -3.17011e-06)
(-5.32622e-05 0 -8.65069e-06)
(-6.2892e-05 0 -8.54503e-06)
(-6.58088e-05 0 -1.81958e-06)
(-5.89604e-05 0 5.88583e-06)
(-4.56175e-05 0 6.43382e-06)
(-3.31212e-05 0 2.59446e-06)
(-2.49192e-05 0 -1.39966e-06)
(-1.98332e-05 0 -8.0696e-06)
(-1.55815e-05 0 -1.86178e-05)
(-1.0601e-05 0 -1.7598e-05)
(-4.43199e-06 0 -1.32272e-05)
(2.73953e-07 0 -6.37456e-06)
(2.09864e-06 0 -3.80469e-06)
(2.7907e-06 0 -2.87935e-06)
(2.60057e-06 0 -1.86056e-06)
(2.13725e-06 0 -5.15874e-07)
(2.19856e-06 0 1.17836e-07)
(2.77475e-06 0 4.89143e-07)
(3.37925e-06 0 3.82164e-07)
(3.60951e-06 0 2.20614e-07)
(3.45014e-06 0 -1.06625e-09)
(3.15446e-06 0 -1.29497e-08)
(2.99195e-06 0 1.03889e-07)
(3.076e-06 0 3.38296e-07)
(3.29712e-06 0 5.93137e-07)
(3.36113e-06 0 7.96417e-07)
(3.1609e-06 0 6.26565e-07)
(3.0949e-06 0 -2.47265e-07)
(3.5282e-06 0 -1.49643e-06)
(3.62873e-06 0 -4.84715e-07)
(4.17844e-06 0 1.46059e-06)
(5.88847e-06 0 -1.48398e-06)
(5.83984e-06 0 -3.94821e-06)
(2.74326e-06 0 -4.3849e-06)
(-7.80245e-07 0 -2.36018e-06)
(1.45174e-07 0 2.91717e-06)
(3.17664e-06 0 1.32055e-06)
(1.80302e-06 0 -5.84962e-06)
(-1.44987e-06 0 -1.06966e-05)
(-1.49907e-06 0 -5.68246e-06)
(-1.11932e-07 0 -2.09388e-06)
(1.20512e-07 0 -7.23809e-07)
(2.56343e-08 0 -2.78015e-07)
(-5.91773e-08 0 -1.09902e-07)
(-9.71231e-08 0 -4.85508e-08)
(-9.76289e-08 0 -4.63049e-08)
(-9.40666e-08 0 -8.61974e-08)
(-1.084e-07 0 -1.88809e-07)
(-1.54273e-07 0 -4.45365e-07)
(-2.25781e-07 0 -9.22335e-07)
(-2.49835e-07 0 -1.48554e-06)
(-1.65789e-07 0 -1.80208e-06)
(-4.83193e-08 0 -2.0661e-06)
(-2.0979e-06 0 -9.98104e-07)
(-4.78569e-06 0 -1.09616e-06)
(-5.15421e-06 0 -2.48581e-06)
(-6.50204e-06 0 -8.36463e-06)
(-7.61901e-06 0 -1.53866e-05)
(3.32521e-06 0 -2.98416e-05)
(4.37556e-05 0 -2.78364e-05)
(5.851e-05 0 3.25295e-05)
(-4.01199e-05 0 0.000100466)
(-0.00018523 0 8.27781e-05)
(-0.000260897 0 6.21583e-05)
(-0.000190408 0 -1.46191e-05)
(-0.000111575 0 -0.000236706)
(-7.92164e-05 0 3.51209e-05)
(-1.49939e-05 0 3.64088e-05)
(1.03636e-05 0 -3.07646e-06)
(-7.70757e-07 0 -1.85794e-05)
(-1.80664e-05 0 -2.23095e-05)
(-1.91508e-05 0 -1.32422e-05)
(-1.47169e-05 0 1.16674e-05)
(-2.07826e-05 0 3.34475e-06)
(-2.02394e-05 0 -1.16367e-05)
(-1.1773e-05 0 -7.00618e-06)
(-8.00192e-06 0 -1.58605e-06)
(-7.9839e-06 0 5.03442e-07)
(-8.42984e-06 0 5.44616e-07)
(-7.73636e-06 0 -6.91555e-07)
(-6.01259e-06 0 -1.98458e-06)
(-4.33803e-06 0 -2.8247e-06)
(-3.15576e-06 0 -3.7748e-06)
(-2.30538e-06 0 -5.97848e-06)
(-1.75974e-06 0 -7.7105e-06)
(-1.88219e-06 0 -6.40421e-06)
(-2.52531e-06 0 -3.72085e-06)
(-3.24104e-06 0 -2.60801e-06)
(-4.25722e-06 0 -3.11562e-06)
(-5.87888e-06 0 -4.89856e-06)
(-7.75115e-06 0 -6.82469e-06)
(-8.48729e-06 0 -8.82111e-06)
(-2.85032e-06 0 -1.67537e-05)
(1.29406e-05 0 -2.49719e-05)
(2.46896e-05 0 -1.18413e-05)
(2.15141e-05 0 3.45361e-06)
(1.27882e-05 0 1.94638e-05)
(3.87184e-06 0 2.31993e-05)
(-4.73419e-06 0 1.491e-05)
(-1.26291e-05 0 1.07362e-05)
(-2.27509e-05 0 1.03461e-05)
(-3.82035e-05 0 1.34557e-05)
(-5.85363e-05 0 1.59333e-05)
(-7.66789e-05 0 1.45034e-05)
(-8.68347e-05 0 1.49432e-05)
(-8.92601e-05 0 1.7503e-05)
(-8.53532e-05 0 1.20787e-05)
(-8.03062e-05 0 5.24869e-06)
(-8.0037e-05 0 -1.8022e-06)
(-8.66233e-05 0 -9.06845e-06)
(-9.70067e-05 0 -1.35712e-05)
(-0.000108255 0 -2.08807e-05)
(-0.000114933 0 -2.11252e-05)
(-0.000110426 0 -1.97054e-05)
(-9.6074e-05 0 -1.95063e-05)
(-7.51578e-05 0 -1.83931e-05)
(-5.4603e-05 0 -1.1234e-05)
(-5.23501e-05 0 9.82529e-06)
(-6.89994e-05 0 1.58001e-05)
(-8.24433e-05 0 1.01369e-05)
(-8.51368e-05 0 6.44224e-06)
(-8.25552e-05 0 4.29396e-06)
(-7.68314e-05 0 -1.29752e-06)
(-6.7817e-05 0 -1.00992e-05)
(-6.16337e-05 0 -2.3165e-05)
(-5.96075e-05 0 -3.12279e-05)
(-5.25394e-05 0 -3.01158e-05)
(-3.84943e-05 0 -2.09403e-05)
(-2.54455e-05 0 -1.03459e-05)
(-1.82996e-05 0 -3.0728e-06)
(-1.61304e-05 0 1.70834e-06)
(-1.68142e-05 0 5.70169e-06)
(-1.82842e-05 0 9.68592e-06)
(-1.85673e-05 0 1.28298e-05)
(-1.83971e-05 0 1.13733e-05)
(-1.73949e-05 0 1.03198e-05)
(-1.73883e-05 0 3.11867e-06)
(-1.91269e-05 0 -4.19405e-07)
(-2.00213e-05 0 -3.47692e-06)
(-2.06564e-05 0 -5.71046e-06)
(-2.0842e-05 0 -8.05245e-06)
(-1.98926e-05 0 -1.07794e-05)
(-1.73716e-05 0 -1.14409e-05)
(-1.37837e-05 0 -8.75799e-06)
(-1.04645e-05 0 -4.89035e-06)
(-8.41219e-06 0 -2.52298e-06)
(-7.66265e-06 0 -1.83295e-06)
(-7.83766e-06 0 -2.02158e-06)
(-8.57798e-06 0 -2.66604e-06)
(-9.35403e-06 0 -3.80244e-06)
(-9.60035e-06 0 -5.93492e-06)
(-9.7641e-06 0 -6.79941e-06)
(-9.95312e-06 0 -5.41375e-06)
(-9.36932e-06 0 -5.09905e-06)
(-7.43067e-06 0 -5.65523e-06)
(-4.49823e-06 0 -4.97066e-06)
(-2.01572e-06 0 -2.53263e-06)
(-7.9624e-07 0 -7.75222e-07)
(-4.48833e-07 0 -2.32062e-07)
(-3.88587e-07 0 -7.22765e-08)
(-5.32902e-07 0 1.54699e-07)
(-1.67712e-06 0 1.4789e-06)
(-9.34001e-06 0 8.79936e-06)
(-2.51881e-05 0 4.75942e-06)
(4.03146e-05 0 -0.000145448)
(0.000123853 0 -1.64759e-05)
(8.49628e-05 0 7.21522e-05)
(2.11533e-05 0 2.55348e-05)
(-6.1037e-07 0 8.75118e-06)
(-9.24598e-06 0 3.52868e-06)
(-1.48826e-05 0 4.67705e-07)
(-1.98658e-05 0 -1.50183e-06)
(-2.35295e-05 0 -3.05598e-06)
(-2.43094e-05 0 -5.36496e-06)
(-2.2169e-05 0 -5.57522e-06)
(-1.86353e-05 0 -5.53217e-06)
(-1.51375e-05 0 -4.02752e-06)
(-1.24572e-05 0 -2.20937e-06)
(-9.72606e-06 0 -4.51855e-06)
(-6.93876e-06 0 -3.62456e-06)
(-5.12154e-06 0 -1.8876e-06)
(-4.18292e-06 0 -9.18198e-07)
(-3.59682e-06 0 -3.6856e-07)
(-3.18071e-06 0 1.64823e-07)
(-3.04887e-06 0 1.27065e-06)
(-4.11055e-06 0 5.3331e-06)
(-8.68779e-06 0 1.60739e-05)
(-1.41355e-05 0 1.80952e-05)
(-1.98352e-05 0 1.48578e-05)
(-2.81103e-05 0 8.72347e-06)
(-3.59369e-05 0 3.8883e-06)
(-3.99544e-05 0 -3.91264e-07)
(-3.82311e-05 0 -4.79269e-06)
(-3.2839e-05 0 -5.93952e-06)
(-2.79198e-05 0 -2.29921e-06)
(-2.56051e-05 0 2.7036e-06)
(-2.48928e-05 0 7.31984e-06)
(-2.20801e-05 0 8.51668e-06)
(-1.68679e-05 0 4.78316e-06)
(-1.37076e-05 0 5.12484e-07)
(-1.44138e-05 0 -2.06195e-06)
(-1.69767e-05 0 -3.13857e-06)
(-1.79807e-05 0 -2.09859e-06)
(-1.54186e-05 0 -1.02935e-06)
(-1.13577e-05 0 -1.99483e-06)
(-8.27955e-06 0 -3.02745e-06)
(-6.63245e-06 0 -4.19978e-06)
(-6.51755e-06 0 -8.57072e-06)
(-6.92534e-06 0 -1.93508e-05)
(-7.7758e-06 0 -1.83793e-05)
(-3.03079e-06 0 -2.14538e-05)
(3.15022e-06 0 -7.7391e-06)
(3.38853e-06 0 -3.45545e-06)
(2.29555e-06 0 -1.92721e-06)
(1.10684e-06 0 -6.97564e-07)
(4.30448e-07 0 -1.83067e-08)
(2.10867e-07 0 1.2632e-07)
(1.58922e-07 0 1.65284e-07)
(1.55705e-07 0 1.88908e-07)
(1.57677e-07 0 1.89091e-07)
(1.54037e-07 0 1.54131e-07)
(1.55791e-07 0 1.26182e-07)
(1.93151e-07 0 1.29025e-07)
(3.51923e-07 0 1.81185e-07)
(8.17578e-07 0 3.21275e-07)
(1.8146e-06 0 5.09053e-07)
(3.31713e-06 0 2.73285e-07)
(5.03217e-06 0 -9.94452e-07)
(5.79017e-06 0 -2.1166e-06)
(4.68013e-06 0 8.82708e-08)
(3.59241e-06 0 2.44949e-07)
(3.04159e-06 0 -2.19575e-06)
(1.98284e-06 0 -2.57676e-06)
(9.15496e-07 0 -2.06329e-06)
(2.57508e-07 0 -1.18577e-06)
(4.33205e-07 0 -2.0746e-07)
(1.21091e-06 0 -2.01951e-07)
(3.47986e-07 0 -2.86738e-06)
(-3.7317e-06 0 -7.47325e-06)
(-4.76569e-06 0 -9.77435e-06)
(-1.52432e-06 0 -4.66228e-06)
(7.78188e-09 0 -1.05589e-06)
(2.64216e-08 0 -2.6185e-07)
(-2.62068e-08 0 -7.98198e-08)
(-4.17554e-08 0 -4.48917e-08)
(-4.41793e-08 0 -5.14307e-08)
(-4.41294e-08 0 -8.09219e-08)
(-5.48097e-08 0 -1.64675e-07)
(-9.17057e-08 0 -3.98418e-07)
(-1.54357e-07 0 -8.84557e-07)
(1.15265e-08 0 -1.79556e-06)
(3.65675e-07 0 -2.12192e-06)
(2.58906e-07 0 -1.92345e-06)
(-1.06012e-06 0 1.63815e-06)
(-2.20887e-06 0 -9.45291e-07)
(-2.86023e-06 0 -2.61525e-06)
(-5.2542e-06 0 -5.39338e-06)