/*--------------------------------*- C++ -*----------------------------------*\
  =========                 |
  \\      /  F ield         | OpenFOAM: The Open Source CFD Toolbox
   \\    /   O peration     | Website:  https://openfoam.org
    \\  /    A nd           | Version:  8
     \\/     M anipulation  |
\*---------------------------------------------------------------------------*/
FoamFile
{
    version     2.0;
    format      ascii;
    class       volScalarField;
    location    "1000";
    object      c;
}
// * * * * * * * * * * * * * * * * * * * * * * * * * * * * * * * * * * * * * //

dimensions      [1 -3 0 0 0 0 0];

internalField   nonuniform List<scalar> 
20000
(
0.00489424
0.00483415
0.00476242
0.00493226
0.00522753
0.00542599
0.00546851
0.00547166
0.0054482
0.00541128
0.0053566
0.00539287
0.00700042
0.00558578
0.00331223
0.0173031
0.0285653
0.0250112
0.0176395
0.00433325
0.00475726
0.005414
0.00546705
0.00545144
0.00543628
0.00540722
0.00537834
0.00530831
0.00528938
0.00537729
0.00539657
0.00538328
0.00538824
0.00541899
0.00547056
0.00551685
0.00553869
0.00554605
0.00553056
0.00548414
0.0054192
0.00536975
0.00539891
0.00547417
0.00550479
0.00551676
0.00546706
0.0054443
0.00537341
0.00536481
0.0054081
0.00548211
0.0056023
0.00582579
0.00624116
0.00648274
0.00423311
0.00425208
0.0054562
0.00551958
0.00550314
0.00549934
0.00547593
0.00544872
0.00549257
0.00567895
0.00506561
0.0049287
0.00536788
0.00510093
0.00524693
0.00550068
0.00546691
0.00544623
0.00546792
0.0054831
0.00549125
0.00549448
0.00543567
0.0052687
0.00910741
0.016001
0.015102
0.0167433
0.00677959
0.00476642
0.00563762
0.00565926
0.0056146
0.00558991
0.00562194
0.00569936
0.00569574
0.00557793
0.00551753
0.00549399
0.00547252
0.00548435
0.00565449
0.00551184
0.00538745
0.00544911
0.00544708
0.00541107
0.00533842
0.00527872
0.00533783
0.00545373
0.00559334
0.00583067
0.00596777
0.00584058
0.00563958
0.00555753
0.00555376
0.00554947
0.00548638
0.0053925
0.00538306
0.00543049
0.00546278
0.00547399
0.00547316
0.0054631
0.00545049
0.00545499
0.00547067
0.00548454
0.00549501
0.00550482
0.00551715
0.00552373
0.00551104
0.00547442
0.00537855
0.00507581
0.00479567
0.00521828
0.005618
0.00572872
0.00565739
0.00556338
0.00552342
0.00553474
0.00560176
0.00578475
0.00592877
0.00575363
0.00562171
0.00553942
0.00548927
0.00542699
0.0052424
0.00486607
0.0048559
0.00651094
0.00763502
0.00724131
0.00623397
0.0055292
0.00533778
0.00525877
0.00534083
0.00542274
0.00546789
0.0054901
0.00549635
0.00550469
0.0055102
0.00551868
0.00551092
0.00549294
0.00548524
0.00548765
0.00549666
0.00551693
0.00551209
0.00500217
0.00530141
0.00610285
0.00592968
0.00586634
0.00522821
0.00416632
0.00793378
0.014735
0.00656598
0.00538959
0.00554839
0.00554369
0.00555461
0.00555611
0.00553411
0.00551105
0.00549252
0.00547307
0.00547449
0.00551149
0.00555467
0.00555835
0.0158239
0.0152331
0.0146901
0.0148329
0.0154784
0.0161304
0.0163347
0.0163536
0.0162684
0.0161793
0.0159989
0.0163605
0.0288675
0.0257345
0.00860342
0.0202282
0.0314766
0.0257656
0.0122984
0.00899715
0.0147292
0.0161835
0.0163866
0.0164135
0.0164404
0.0164364
0.0164306
0.0163158
0.016223
0.0162974
0.0161932
0.0161088
0.016165
0.0162813
0.0164115
0.0164989
0.016536
0.0165616
0.0165713
0.016556
0.0164066
0.0161149
0.0159605
0.0161716
0.0162736
0.0163023
0.016284
0.0163394
0.0163569
0.0163837
0.0164234
0.0165275
0.0167432
0.0172147
0.0176962
0.0171246
0.0134189
0.0134857
0.0162632
0.0165108
0.0164723
0.0164488
0.0164187
0.016398
0.0164847
0.0167399
0.0159397
0.0158381
0.0163364
0.0152807
0.0151252
0.016458
0.016457
0.0163939
0.0164174
0.016441
0.0164528
0.0164552
0.0164253
0.0160206
0.0150045
0.020624
0.0133809
0.0202346
0.0118662
0.0155909
0.016744
0.0168044
0.0167385
0.0166841
0.0166822
0.0167492
0.0167819
0.0166871
0.0165989
0.0165226
0.0164648
0.0165493
0.0169209
0.0164974
0.0162054
0.0162982
0.016273
0.0161844
0.0161483
0.0161803
0.0162796
0.016401
0.0165359
0.0168547
0.0175763
0.0184404
0.0171962
0.0164579
0.0163698
0.0163735
0.0162649
0.0161165
0.016156
0.0163091
0.0163987
0.0164259
0.0164196
0.016377
0.0163309
0.0163604
0.0164137
0.0164433
0.0164574
0.0164663
0.0164751
0.0164746
0.0164199
0.0161908
0.0157738
0.0154333
0.0153359
0.0160761
0.0166858
0.0168168
0.0165884
0.0163583
0.0162801
0.0162972
0.0164694
0.0171806
0.0179394
0.0176054
0.017055
0.0166532
0.0164004
0.0161323
0.0156519
0.0150228
0.0152377
0.0187363
0.0205028
0.0192074
0.0173737
0.0165281
0.0163614
0.0161617
0.0162298
0.0162591
0.0163682
0.0164116
0.0164593
0.0164788
0.0165063
0.0165172
0.0164998
0.0164618
0.0164449
0.0164529
0.0164786
0.016523
0.0164121
0.0152178
0.0157932
0.0178117
0.0180235
0.017991
0.0150652
0.0133327
0.0116307
0.0200301
0.0130255
0.0163975
0.0165459
0.0165354
0.0165447
0.0165452
0.0165207
0.0164985
0.0164829
0.0164694
0.0164867
0.0165542
0.0165885
0.0166212
0.0262146
0.0251192
0.0246295
0.0244636
0.0256202
0.0257997
0.0260563
0.0263766
0.0267631
0.0267365
0.0262104
0.0278588
0.0469155
0.0409339
0.0237892
0.0231322
0.0292389
0.0284087
0.0142617
0.0187041
0.025055
0.0269233
0.0272713
0.0273535
0.0274107
0.027448
0.0274611
0.0274024
0.027323
0.0272298
0.0270841
0.0269594
0.0270174
0.027191
0.0273415
0.0273993
0.0274269
0.027473
0.0275833
0.0277516
0.0277962
0.0272132
0.0264016
0.0264368
0.026768
0.0270071
0.0271542
0.0272922
0.0273505
0.0274088
0.0274129
0.0274999
0.0276014
0.0279546
0.028363
0.0280755
0.0246085
0.0243377
0.0268776
0.0273478
0.0273276
0.0273387
0.0273189
0.0272915
0.0272461
0.0272744
0.0272771
0.0273667
0.0274599
0.0255899
0.025004
0.0271563
0.0274312
0.0273997
0.0273928
0.0273979
0.0273971
0.0273902
0.0273833
0.0274337
0.0280851
0.0286568
0.0117549
0.031446
0.0268631
0.0274758
0.0276721
0.0277492
0.0277461
0.027701
0.0276176
0.0275581
0.0275572
0.0276047
0.0276121
0.0275803
0.0275798
0.0277595
0.0280665
0.0274817
0.0270991
0.0271197
0.0271032
0.0271024
0.0272018
0.0273265
0.0273785
0.0273818
0.0273439
0.0273198
0.0287402
0.0365633
0.0311896
0.0265601
0.0266719
0.0269574
0.0269814
0.0268829
0.0269601
0.027185
0.0273424
0.0273887
0.0273756
0.0272785
0.0271422
0.0272626
0.0273665
0.0273947
0.0273941
0.0273859
0.0273707
0.027327
0.0271424
0.0265636
0.0260539
0.0262367
0.0268426
0.0273985
0.0276761
0.0276072
0.0272511
0.0270236
0.0269664
0.0269252
0.0269015
0.0276697
0.0288783
0.0289075
0.0283
0.027494
0.0268646
0.0266364
0.0265829
0.0265992
0.0279715
0.0313265
0.0319643
0.0302848
0.0285723
0.0278685
0.0276243
0.0274565
0.0273638
0.0273089
0.0273156
0.0273524
0.0273858
0.02742
0.0274334
0.0274208
0.0273774
0.0273356
0.027343
0.027385
0.0274337
0.0274842
0.0271727
0.0258327
0.026426
0.0285382
0.0292725
0.028836
0.0246546
0.0246236
0.0254166
0.0313531
0.0275406
0.0275831
0.0274903
0.0274572
0.0274439
0.0274372
0.0274346
0.0274363
0.0274427
0.0274618
0.0275096
0.0275687
0.0276101
0.0275994
0.0350156
0.0339754
0.0334855
0.0348993
0.0352572
0.0348765
0.0334716
0.0346698
0.0365083
0.0359576
0.0345549
0.0419577
0.0488781
0.025333
0.0223247
0.0219726
0.0283524
0.0393217
0.0262234
0.0296563
0.0349374
0.0376799
0.0382329
0.0383613
0.0384702
0.0385516
0.038508
0.0383958
0.0383024
0.0382374
0.0381071
0.0379473
0.0379943
0.0381714
0.0382654
0.0382814
0.0382825
0.0383251
0.0385186
0.0390774
0.0398631
0.0392431
0.0366092
0.0358515
0.0366885
0.0374918
0.0379511
0.0382007
0.0383288
0.0384197
0.0385961
0.0383755
0.0381107
0.0381937
0.0387282
0.0386036
0.0368738
0.0360647
0.0377843
0.0378884
0.0379762
0.0380695
0.0381288
0.0380904
0.0379365
0.0379745
0.0381206
0.0381634
0.0379356
0.036303
0.0356242
0.0377454
0.0383234
0.0383141
0.0383081
0.0383205
0.0383196
0.0383086
0.0382995
0.0383726
0.0389746
0.0374091
0.0189905
0.0383543
0.0388311
0.0385544
0.0385806
0.0386411
0.0386877
0.0386852
0.0386026
0.0385001
0.0384415
0.0384415
0.0384772
0.0385318
0.0386409
0.038894
0.0390675
0.0385271
0.0381158
0.0380072
0.0380176
0.0381407
0.0382613
0.0383131
0.0383211
0.0382949
0.0381602
0.0377575
0.0404352
0.0654187
0.0599842
0.038166
0.0358777
0.0374298
0.0378386
0.037944
0.0378442
0.0379134
0.0382054
0.03835
0.0383623
0.0381041
0.0377873
0.0381774
0.0383718
0.0383728
0.0383478
0.0383241
0.0382902
0.0382011
0.0378471
0.0369226
0.0365836
0.0369536
0.0377239
0.0381855
0.0384465
0.0385397
0.0383777
0.0381586
0.037993
0.03777
0.0375779
0.0379817
0.038843
0.0391359
0.0390124
0.0383366
0.0377783
0.0377237
0.0380037
0.0383469
0.0396972
0.0427275
0.043219
0.0435025
0.0398105
0.0388646
0.0385771
0.03843
0.0383195
0.038284
0.0382439
0.0382537
0.0382623
0.0382901
0.0382923
0.0382685
0.0382222
0.0381939
0.0382162
0.0382847
0.0383875
0.0384604
0.037813
0.0367891
0.0376347
0.0388027
0.0392318
0.0387787
0.0365772
0.0368878
0.0381871
0.040959
0.0391788
0.0385873
0.0384201
0.0383731
0.0383566
0.0383506
0.0383512
0.0383557
0.0383648
0.0383881
0.0384438
0.0385599
0.0385608
0.0385418
0.0461695
0.0457281
0.0459073
0.0463974
0.0458424
0.0446421
0.0404404
0.0360106
0.0329269
0.0388872
0.0475265
0.0519129
0.0493125
0.0281394
0.0286757
0.0432384
0.0502951
0.0496742
0.0428201
0.038739
0.0431566
0.0492462
0.0503064
0.0502069
0.0503403
0.0502958
0.0499216
0.0495119
0.0493102
0.0492043
0.0490619
0.0488746
0.0489047
0.0490956
0.049169
0.0491636
0.0491007
0.0490187
0.0492562
0.0529748
0.0565086
0.054226
0.0461997
0.0446979
0.0463469
0.0474496
0.0483278
0.048848
0.0492789
0.0494691
0.0491396
0.0483844
0.0479941
0.0485215
0.0491232
0.0494223
0.0486065
0.0483999
0.0490313
0.0490583
0.0491365
0.0492614
0.049264
0.0482662
0.0469917
0.0471263
0.0478398
0.0476826
0.0470911
0.0468416
0.0474246
0.0486955
0.0491191
0.0492016
0.0492065
0.0491997
0.0491962
0.0491718
0.0491541
0.0491832
0.0494157
0.0493128
0.0429075
0.0496739
0.0495116
0.0494637
0.0495119
0.0495662
0.0496041
0.0495956
0.0495453
0.0494589
0.0493794
0.049346
0.0493505
0.0493987
0.0495583
0.04988
0.0499707
0.0495481
0.0491672
0.0489606
0.0489404
0.0490753
0.0491879
0.0492238
0.0492234
0.0491677
0.0487939
0.0475009
0.0534666
0.0856815
0.0845797
0.0664224
0.0453557
0.0473038
0.0486346
0.0489084
0.0487395
0.0486908
0.0490416
0.0492435
0.0492601
0.0486026
0.0480477
0.049004
0.0494081
0.0493575
0.0493039
0.0492627
0.0492174
0.0490872
0.048491
0.047199
0.0475933
0.0472792
0.0480246
0.0486026
0.0491592
0.0496958
0.0498277
0.0494879
0.0490674
0.0487061
0.0485876
0.04888
0.0492376
0.0494141
0.0494783
0.0493558
0.0492232
0.0492524
0.0492823
0.0493022
0.0501328
0.0537471
0.0554184
0.0692455
0.0518245
0.049407
0.0492187
0.0491529
0.049143
0.0491649
0.0491659
0.0491589
0.0491553
0.0491681
0.0491727
0.0491603
0.0491326
0.0491134
0.0491439
0.0492378
0.0494088
0.0494194
0.0484268
0.0479041
0.0488192
0.0492772
0.0493386
0.0492452
0.0489076
0.0487997
0.0491159
0.0506426
0.0508449
0.0498647
0.0493462
0.0492697
0.0492583
0.0492577
0.0492586
0.0492603
0.0492653
0.0492776
0.0493144
0.0495558
0.0495355
0.0493569
0.0578245
0.058799
0.0590586
0.0586609
0.0579531
0.0546555
0.0440373
0.0357397
0.0331477
0.0348129
0.0377026
0.0466255
0.0655535
0.0508402
0.0556936
0.0597937
0.059975
0.0590637
0.0545862
0.0454534
0.0497001
0.0608474
0.064387
0.0628813
0.0620436
0.0613895
0.0608282
0.0604669
0.060254
0.0601217
0.0600764
0.0596762
0.0596495
0.059898
0.0600043
0.0599824
0.0597744
0.0591613
0.0619186
0.0806482
0.0820854
0.0761936
0.0560053
0.0536581
0.0562915
0.0566228
0.056966
0.0586035
0.0595604
0.059853
0.0597686
0.059416
0.0592841
0.0596931
0.0599275
0.0601127
0.0600508
0.0599937
0.0601325
0.0602758
0.0603511
0.0603951
0.0595751
0.0567652
0.0545479
0.0556231
0.0576335
0.0579423
0.058116
0.0587488
0.0594001
0.0598382
0.0600272
0.0601326
0.0601347
0.0600802
0.0600558
0.0600101
0.0600024
0.0600075
0.0600543
0.0599998
0.0593034
0.0599882
0.0601166
0.0602361
0.0603805
0.0605123
0.0606262
0.0606733
0.0605778
0.0604365
0.0603184
0.0602474
0.0602362
0.060289
0.0605035
0.060909
0.0609138
0.0605329
0.0601781
0.0600003
0.0599143
0.0600049
0.0600782
0.0601235
0.0601061
0.0597345
0.0581547
0.0681129
0.0881362
0.0922113
0.089674
0.0636768
0.0514669
0.0576505
0.0593434
0.0597411
0.0596526
0.0595812
0.0599169
0.0602267
0.0601467
0.0589575
0.0577606
0.0593933
0.0603625
0.0603065
0.0602028
0.0601992
0.0602146
0.0601153
0.0583971
0.0574468
0.0624883
0.0574513
0.0583713
0.0593264
0.0601412
0.0608535
0.0611015
0.0606721
0.0600683
0.0597519
0.0598221
0.0600295
0.0601344
0.0601746
0.0601984
0.0602124
0.0602183
0.0602066
0.0600872
0.0595679
0.0605989
0.0725221
0.0719292
0.103288
0.0696688
0.0591865
0.0596602
0.0598897
0.0599773
0.060024
0.0600453
0.0600448
0.0600471
0.0600535
0.0600546
0.0600391
0.0600161
0.0600213
0.0600665
0.0601305
0.0602062
0.0601443
0.0593674
0.0590794
0.0596356
0.0599735
0.06007
0.0600573
0.0600036
0.059985
0.0600487
0.0605982
0.0618355
0.0612411
0.0602893
0.0601472
0.0601389
0.0601381
0.0601372
0.0601352
0.0601191
0.060049
0.0598901
0.0619561
0.0605322
0.0599782
0.0682865
0.0700534
0.0703133
0.0700154
0.0694224
0.0680013
0.0650367
0.0612661
0.0599612
0.0560564
0.0465599
0.0496577
0.0690206
0.0741294
0.0713012
0.0706406
0.06995
0.0691647
0.0655874
0.0540157
0.0526795
0.059733
0.0714983
0.0718612
0.0713708
0.0712275
0.0711397
0.0710887
0.0711142
0.0713525
0.0713828
0.0706691
0.0703723
0.070522
0.0706374
0.0706165
0.0701512
0.0692791
0.0804225
0.0967191
0.0936494
0.0885042
0.063492
0.0663817
0.0695623
0.0666024
0.0633933
0.06679
0.0698291
0.0705756
0.0707634
0.0708175
0.0708547
0.0708776
0.0708882
0.070879
0.0708847
0.0709563
0.0710411
0.0710742
0.0710089
0.0708533
0.0701447
0.0674622
0.0647621
0.0664916
0.0694509
0.0700097
0.0700619
0.0703425
0.0706145
0.0708287
0.0709022
0.0709618
0.0710138
0.0710509
0.0708736
0.0708662
0.0708665
0.0708891
0.0708334
0.0706303
0.0702796
0.070557
0.0707946
0.0709718
0.0711284
0.0713076
0.0715196
0.0717159
0.0717912
0.0716223
0.0714234
0.0712485
0.0711827
0.0712538
0.0717161
0.0723153
0.0719765
0.0714142
0.0711424
0.0709995
0.0709816
0.0710111
0.0710641
0.0711015
0.0710167
0.0700235
0.068362
0.0830216
0.095879
0.0948908
0.0915928
0.0626807
0.0626124
0.069135
0.0703535
0.0706622
0.0707389
0.0707374
0.0708169
0.0710674
0.0714314
0.0703374
0.0674355
0.0691021
0.0713512
0.0714081
0.0711252
0.0711536
0.0715514
0.0719297
0.0694353
0.077907
0.0813758
0.0680348
0.0696799
0.070738
0.0713459
0.0718975
0.0722433
0.0718292
0.0710953
0.070859
0.070927
0.0709988
0.0710268
0.071035
0.0710358
0.0710279
0.07101
0.0709352
0.0705798
0.0690635
0.0785808
0.100696
0.0855073
0.111357
0.0813379
0.0685189
0.0702213
0.0706931
0.0708116
0.0708644
0.0709245
0.0709592
0.0709674
0.0709488
0.0709249
0.0708778
0.0708535
0.0708667
0.0709087
0.0709427
0.0709443
0.070878
0.0705479
0.0701662
0.0703535
0.0706885
0.0708635
0.0709105
0.0709074
0.0709084
0.0709449
0.0711845
0.0722568
0.0724813
0.0713571
0.0709669
0.0709956
0.0709925
0.0709875
0.0709492
0.0707779
0.0703045
0.0712387
0.0786252
0.0729313
0.0698477
0.0742678
0.0796989
0.0798964
0.0796094
0.0789907
0.0792786
0.0792836
0.079788
0.0801333
0.0786519
0.070377
0.063396
0.0760869
0.0824085
0.0816861
0.0813401
0.0809218
0.0802922
0.0767417
0.0660144
0.0642138
0.0764394
0.0814369
0.0817298
0.0817595
0.0818297
0.0818729
0.0819378
0.0820898
0.0824301
0.0826312
0.0818555
0.0813831
0.0814092
0.0814382
0.0814416
0.0810468
0.0794694
0.0801058
0.0947815
0.0822812
0.0702165
0.0669198
0.0820426
0.0868687
0.0834376
0.0707392
0.0727867
0.0792111
0.0810725
0.0814828
0.0816123
0.0816862
0.0817168
0.0817286
0.0817313
0.0817726
0.0818371
0.0819009
0.0819082
0.0817952
0.0813322
0.0801845
0.0788588
0.0783803
0.0797463
0.0808605
0.0811175
0.0811619
0.0812956
0.0815184
0.0816333
0.081671
0.0815913
0.0816385
0.0816089
0.081545
0.0813856
0.0817922
0.0817449
0.0816623
0.0812441
0.0810226
0.0813975
0.0816276
0.0817673
0.0818856
0.0820021
0.0821912
0.0824132
0.0825979
0.0826154
0.0825273
0.0823467
0.0822161
0.08238
0.083098
0.0838917
0.0833015
0.0823212
0.0820171
0.0819632
0.0819638
0.0819598
0.0819376
0.0819013
0.0818611
0.0816676
0.0795141
0.0773745
0.0959989
0.0914713
0.0756635
0.0683224
0.0833234
0.0814968
0.0815935
0.0816445
0.0816608
0.081678
0.0817361
0.0818514
0.082168
0.0813938
0.077948
0.076666
0.0802248
0.0822115
0.0820821
0.0819805
0.0824791
0.0828717
0.0763251
0.0779509
0.085344
0.0809579
0.0824971
0.0827967
0.0827378
0.0831389
0.083913
0.0832496
0.0820495
0.0818184
0.0818331
0.0818669
0.0818893
0.0819059
0.0819204
0.0818945
0.0818205
0.0815803
0.0810027
0.0789064
0.0765262
0.110587
0.0923975
0.109772
0.0836508
0.0783773
0.0809959
0.081534
0.0816407
0.0816728
0.0817
0.0817369
0.0817501
0.0817477
0.081717
0.0816678
0.0816589
0.0817047
0.0817619
0.0817856
0.0817745
0.0816968
0.0814483
0.0810778
0.0811007
0.0814303
0.0816577
0.081746
0.0817666
0.0817703
0.0817703
0.0818452
0.082375
0.0834753
0.0832806
0.0813956
0.0818629
0.0818648
0.0818184
0.0817022
0.0812332
0.0803079
0.0783264
0.0887968
0.0869106
0.0793882
0.0801313
0.0897314
0.0904811
0.0905423
0.0898433
0.0895876
0.088984
0.0904888
0.0902678
0.0892059
0.0858052
0.0780933
0.0817824
0.0882079
0.0917409
0.0925902
0.0936223
0.0933663
0.0908394
0.0779497
0.0788958
0.0886703
0.0922812
0.0928524
0.0924484
0.0922762
0.0924139
0.0927009
0.0930096
0.0934731
0.0933296
0.0924155
0.0921803
0.0923409
0.0924615
0.0925143
0.0922936
0.0911371
0.0907823
0.0979882
0.0738998
0.070988
0.0795063
0.0964188
0.100048
0.0968288
0.0793852
0.0770487
0.0837821
0.0889253
0.0909911
0.0919122
0.0922718
0.0924327
0.0924883
0.0925272
0.0925683
0.0926263
0.0927959
0.0927766
0.0922967
0.090978
0.0900503
0.0897956
0.0904788
0.0914014
0.0918948
0.0920393
0.0919758
0.091967
0.0922229
0.0922728
0.0921264
0.0918194
0.0914515
0.0912512
0.0913627
0.0920199
0.0928934
0.0932898
0.0933987
0.0926899
0.0921841
0.0924282
0.0925116
0.0926996
0.0927589
0.092773
0.0928553
0.0930155
0.0930797
0.0932366
0.0933833
0.0933068
0.0931782
0.0932579
0.0939202
0.0950026
0.0951502
0.0938259
0.0930469
0.0928968
0.0928569
0.0928133
0.0927347
0.0926829
0.0926689
0.0927065
0.0926651
0.0828519
0.104616
0.0777774
0.0772941
0.0877028
0.100484
0.0940426
0.0929017
0.0926428
0.0925596
0.0925533
0.0925714
0.0926126
0.0927
0.09282
0.0909114
0.0862194
0.0878301
0.092093
0.092784
0.0926096
0.092712
0.0924846
0.0837116
0.0782399
0.0912701
0.0940061
0.0938819
0.0937247
0.093477
0.0958914
0.099586
0.0978641
0.0927771
0.0924929
0.0924978
0.0925251
0.0926692
0.0931116
0.0936559
0.0936065
0.0931221
0.0921637
0.0915583
0.0902274
0.0838086
0.11616
0.0973989
0.107578
0.0953779
0.0884175
0.091857
0.092372
0.0924695
0.0924725
0.0924724
0.0925085
0.092542
0.0925532
0.0925303
0.0924994
0.0924907
0.0925532
0.0925995
0.0926172
0.0925824
0.0924324
0.0921123
0.09181
0.0919491
0.0923037
0.0925077
0.0925805
0.0926029
0.0926049
0.0925949
0.0925885
0.0927411
0.0939149
0.0951941
0.0913429
0.0928727
0.0928646
0.0928427
0.0926707
0.0920199
0.0912676
0.0907661
0.0995463
0.0981739
0.0878021
0.0894185
0.100957
0.10238
0.101949
0.100829
0.0987367
0.0980441
0.099741
0.100255
0.0999497
0.098285
0.0928414
0.086118
0.0911909
0.103199
0.111852
0.117336
0.116978
0.109178
0.0925779
0.0871753
0.093845
0.102263
0.104618
0.10175
0.101284
0.104067
0.108729
0.107453
0.104924
0.103287
0.10261
0.102926
0.103256
0.103366
0.103362
0.103264
0.102917
0.106392
0.113776
0.0745616
0.0728925
0.0960127
0.106488
0.1093
0.102061
0.0849536
0.0807655
0.0886657
0.0959228
0.0989673
0.10081
0.102188
0.102861
0.103003
0.102985
0.10286
0.102924
0.102954
0.10299
0.102622
0.101747
0.101095
0.100979
0.10164
0.10235
0.102713
0.102719
0.102416
0.102066
0.102028
0.102181
0.101998
0.101847
0.102142
0.102371
0.102466
0.102509
0.103238
0.104149
0.104314
0.103216
0.102776
0.103046
0.103868
0.105476
0.104804
0.103838
0.103572
0.103666
0.10385
0.104011
0.10418
0.104184
0.104072
0.104077
0.104369
0.105197
0.1061
0.105341
0.104359
0.103848
0.103644
0.103559
0.103503
0.103476
0.1035
0.103667
0.104792
0.111032
0.115289
0.07837
0.078319
0.101537
0.110443
0.105718
0.104096
0.103724
0.103572
0.10348
0.103435
0.103416
0.103413
0.1034
0.102925
0.0986421
0.0959806
0.10138
0.103302
0.103295
0.103203
0.102767
0.0983671
0.0937896
0.102845
0.103476
0.103531
0.102935
0.102654
0.111049
0.119722
0.119041
0.104364
0.102811
0.103087
0.103203
0.103377
0.103907
0.104821
0.105759
0.107986
0.102939
0.102174
0.101495
0.104914
0.122836
0.104832
0.107095
0.0985944
0.10157
0.103095
0.10329
0.103309
0.103276
0.103259
0.10329
0.103325
0.103333
0.103319
0.103294
0.103332
0.103412
0.103498
0.10352
0.103275
0.102884
0.102714
0.102742
0.102997
0.103242
0.103364
0.103405
0.10342
0.103426
0.103434
0.103445
0.103499
0.104058
0.105002
0.102141
0.103513
0.103527
0.103544
0.10353
0.103123
0.102278
0.102953
0.11384
0.107578
0.0986862
0.103624
0.110984
0.112529
0.111908
0.110683
0.107718
0.107906
0.111668
0.113896
0.114013
0.113964
0.110453
0.0928859
0.0965211
0.120021
0.13155
0.137669
0.132364
0.118947
0.104591
0.0973696
0.0991347
0.104201
0.108298
0.107864
0.117896
0.129467
0.134355
0.128686
0.118494
0.112426
0.11213
0.113314
0.113925
0.114103
0.114223
0.11432
0.114346
0.11892
0.121977
0.0861843
0.0813711
0.108208
0.114888
0.116413
0.10783
0.0919826
0.0871055
0.0966943
0.106025
0.109325
0.110787
0.111582
0.111236
0.110956
0.11041
0.110658
0.111931
0.113027
0.113589
0.11352
0.11322
0.112458
0.111999
0.112112
0.112529
0.112521
0.112101
0.111768
0.11191
0.11233
0.112673
0.112738
0.112804
0.113276
0.113718
0.113796
0.113519
0.113734
0.114331
0.114332
0.114026
0.113907
0.113503
0.11383
0.116216
0.116206
0.115246
0.11486
0.114813
0.114884
0.114982
0.115196
0.115229
0.11511
0.115063
0.115245
0.115712
0.116351
0.115998
0.114989
0.114523
0.114365
0.114304
0.11429
0.11432
0.114424
0.114765
0.11708
0.125673
0.120214
0.0826812
0.0812275
0.112767
0.120418
0.116817
0.115046
0.114523
0.114362
0.114304
0.114257
0.114191
0.114125
0.113999
0.113458
0.110168
0.105253
0.110257
0.113488
0.113985
0.113958
0.113567
0.111912
0.110209
0.112364
0.112949
0.11321
0.111915
0.110257
0.118101
0.133106
0.129935
0.111648
0.113243
0.11391
0.114096
0.114186
0.114302
0.114588
0.116877
0.127286
0.118447
0.112664
0.112105
0.127935
0.123755
0.111511
0.108555
0.101987
0.115866
0.114551
0.114241
0.114107
0.113973
0.113928
0.113964
0.114033
0.114055
0.114048
0.114022
0.114045
0.114128
0.114241
0.114295
0.113911
0.11352
0.113635
0.113864
0.114012
0.114105
0.114167
0.114196
0.114202
0.114208
0.114218
0.114249
0.114357
0.114623
0.114756
0.11407
0.114226
0.114221
0.11422
0.114232
0.114127
0.113359
0.113673
0.125066
0.116752
0.110152
0.118101
0.121392
0.12124
0.119801
0.117951
0.11501
0.119151
0.128448
0.129087
0.128702
0.128005
0.123534
0.105156
0.0955705
0.105449
0.11827
0.139086
0.136899
0.127237
0.121391
0.116602
0.10857
0.117872
0.123508
0.123197
0.133455
0.138246
0.140303
0.134999
0.124727
0.119675
0.120413
0.123044
0.124571
0.124978
0.125159
0.125414
0.12582
0.128773
0.132376
0.114276
0.101379
0.118031
0.122835
0.124618
0.123494
0.111872
0.10324
0.112174
0.119766
0.122882
0.124255
0.124193
0.119121
0.115355
0.11568
0.119016
0.121747
0.123317
0.123945
0.124176
0.123533
0.122357
0.121103
0.120782
0.12099
0.121208
0.121531
0.122279
0.123021
0.123492
0.123722
0.12364
0.1235
0.12367
0.124168
0.124401
0.124283
0.124207
0.124705
0.124865
0.124911
0.125021
0.125182
0.124896
0.125311
0.126146
0.12593
0.125731
0.125781
0.125806
0.125728
0.125784
0.126146
0.126705
0.127517
0.128032
0.12726
0.126818
0.126154
0.12554
0.125284
0.125146
0.125112
0.125172
0.125425
0.125865
0.126499
0.128581
0.132592
0.119391
0.0952931
0.0896554
0.120833
0.129758
0.126892
0.125387
0.125231
0.125115
0.125045
0.124968
0.124813
0.124565
0.124113
0.123209
0.120495
0.11669
0.119407
0.123145
0.124575
0.124687
0.124487
0.123419
0.121647
0.120804
0.122141
0.124872
0.123958
0.121205
0.126294
0.140448
0.135576
0.122869
0.125095
0.125069
0.125027
0.125043
0.125169
0.125593
0.127108
0.140946
0.13613
0.127757
0.128304
0.12704
0.114195
0.110332
0.122271
0.122225
0.127177
0.126107
0.125515
0.124513
0.124198
0.124472
0.124664
0.124753
0.124772
0.12472
0.124614
0.124538
0.124571
0.124699
0.124821
0.124669
0.124529
0.12471
0.124842
0.124887
0.1249
0.124959
0.124974
0.12496
0.124962
0.124982
0.125067
0.125244
0.125396
0.125279
0.125026
0.124992
0.124978
0.124976
0.12499
0.12499
0.124678
0.123833
0.129834
0.124176
0.122796
0.132774
0.132157
0.128842
0.123887
0.11708
0.125871
0.141962
0.149973
0.148259
0.144815
0.140025
0.129324
0.109449
0.0966643
0.102406
0.116496
0.13831
0.140274
0.134631
0.133163
0.133217
0.132763
0.136311
0.132116
0.126661
0.126334
0.125565
0.139194
0.140325
0.132529
0.127393
0.127783
0.13236
0.135826
0.136251
0.136153
0.136169
0.136575
0.138106
0.140296
0.132836
0.122843
0.127125
0.131369
0.133093
0.133022
0.129979
0.12626
0.130432
0.134381
0.136895
0.138551
0.136974
0.127838
0.120739
0.12402
0.129633
0.132464
0.133585
0.133891
0.133476
0.131388
0.128551
0.127481
0.12887
0.131261
0.132811
0.133788
0.134397
0.134612
0.134484
0.133854
0.133296
0.134222
0.134578
0.134759
0.134947
0.134978
0.135136
0.135562
0.135699
0.135728
0.135808
0.136037
0.136312
0.136305
0.136157
0.13603
0.136074
0.136201
0.136162
0.135992
0.135954
0.136254
0.137552
0.140432
0.143259
0.138973
0.136774
0.136232
0.136261
0.136112
0.136006
0.135996
0.136173
0.136525
0.136905
0.137193
0.137717
0.139169
0.137898
0.125751
0.116885
0.132036
0.137943
0.136597
0.136039
0.135926
0.13583
0.135762
0.135591
0.135267
0.134732
0.134172
0.133691
0.132511
0.129604
0.128795
0.131874
0.134422
0.134968
0.134864
0.133595
0.130856
0.128974
0.131119
0.138072
0.138961
0.136247
0.136473
0.145337
0.144694
0.141425
0.139572
0.136651
0.136054
0.136062
0.136851
0.139317
0.142022
0.149026
0.144264
0.137614
0.137768
0.119224
0.112403
0.110616
0.126895
0.136882
0.136884
0.136513
0.136054
0.135306
0.135454
0.135679
0.135599
0.135564
0.135526
0.135392
0.135189
0.135035
0.135043
0.135167
0.135319
0.135418
0.1355
0.135646
0.135726
0.135741
0.135696
0.135827
0.135792
0.135724
0.135734
0.135854
0.136161
0.136405
0.136278
0.136001
0.13581
0.135761
0.135724
0.135725
0.135734
0.135796
0.135959
0.136279
0.138015
0.13621
0.135772
0.143768
0.141665
0.135143
0.11996
0.11425
0.125177
0.144586
0.159491
0.157383
0.152496
0.146614
0.136889
0.119364
0.105527
0.119834
0.145249
0.151405
0.146652
0.140403
0.139151
0.139103
0.14457
0.135688
0.125411
0.121257
0.117104
0.130024
0.149051
0.147646
0.14262
0.135592
0.134419
0.14413
0.150394
0.149843
0.147862
0.147078
0.147014
0.147143
0.146978
0.142145
0.136743
0.137101
0.140393
0.142345
0.143058
0.142947
0.142718
0.14435
0.146663
0.148348
0.148813
0.1443
0.134226
0.129275
0.134247
0.140254
0.142657
0.143009
0.142927
0.142228
0.140446
0.137922
0.136984
0.139628
0.143424
0.145376
0.14599
0.146215
0.146375
0.146673
0.143037
0.142535
0.150163
0.147523
0.145741
0.14582
0.145916
0.146141
0.146346
0.14642
0.146436
0.146491
0.146703
0.147338
0.147023
0.14677
0.146668
0.146666
0.146677
0.146558
0.146455
0.146441
0.146526
0.147004
0.150468
0.15675
0.149654
0.146556
0.146807
0.147613
0.1479
0.14761
0.147269
0.146974
0.147096
0.147258
0.14735
0.147607
0.147961
0.147607
0.145909
0.144484
0.146235
0.147005
0.146741
0.146684
0.146652
0.14652
0.146438
0.146288
0.145896
0.145146
0.14459
0.144449
0.14391
0.141401
0.138173
0.140068
0.143853
0.144922
0.145006
0.144114
0.141468
0.139009
0.138456
0.14437
0.148622
0.148895
0.148012
0.151218
0.156105
0.159865
0.154509
0.149275
0.148378
0.148562
0.151509
0.158169
0.157616
0.156061
0.150032
0.146962
0.147967
0.144144
0.13255
0.131785
0.145341
0.146606
0.146519
0.146467
0.146476
0.146543
0.147008
0.146785
0.146374
0.146276
0.146169
0.145949
0.145613
0.145458
0.145602
0.145813
0.145992
0.146118
0.146221
0.146327
0.146401
0.146405
0.146438
0.146656
0.146862
0.146634
0.146689
0.146842
0.147068
0.147128
0.146935
0.146697
0.146581
0.146516
0.146514
0.146477
0.146488
0.146564
0.146816
0.14737
0.147858
0.147267
0.146904
0.15408
0.150891
0.140021
0.122144
0.115152
0.121715
0.142071
0.163438
0.16164
0.157689
0.153341
0.146524
0.136913
0.128601
0.148033
0.158495
0.15887
0.153556
0.141472
0.137768
0.148807
0.15886
0.127126
0.116764
0.114148
0.121519
0.146276
0.157059
0.156311
0.154563
0.14566
0.144325
0.156734
0.161956
0.16414
0.162084
0.156885
0.155374
0.154597
0.153453
0.150951
0.148945
0.149383
0.151896
0.153693
0.154412
0.154209
0.153747
0.15401
0.155194
0.156413
0.156989
0.154431
0.147363
0.14355
0.147137
0.151002
0.151785
0.150664
0.149896
0.150172
0.150525
0.150149
0.14996
0.152135
0.155392
0.157085
0.1577
0.158
0.159169
0.160223
0.152179
0.158096
0.171808
0.165677
0.156509
0.156263
0.156682
0.156888
0.157051
0.157076
0.157016
0.156859
0.157462
0.161423
0.157517
0.157062
0.157299
0.157365
0.157306
0.157198
0.157125
0.15713
0.1572
0.157743
0.16245
0.167925
0.160553
0.157125
0.157873
0.159729
0.160558
0.159653
0.158436
0.15773
0.157478
0.157513
0.157701
0.158212
0.158318
0.157522
0.157017
0.156869
0.157063
0.157184
0.157247
0.157371
0.157291
0.157233
0.157085
0.157004
0.15672
0.156097
0.155103
0.15393
0.152578
0.150171
0.148613
0.150793
0.153767
0.155068
0.155578
0.155851
0.155815
0.154981
0.153358
0.153874
0.155844
0.157474
0.15785
0.157992
0.168295
0.174506
0.167133
0.162265
0.166984
0.171715
0.178025
0.183899
0.17198
0.161912
0.158035
0.157064
0.157193
0.156995
0.155138
0.154153
0.156494
0.157027
0.157083
0.157086
0.157084
0.157411
0.158535
0.158114
0.156922
0.156672
0.156542
0.156315
0.155996
0.155874
0.156167
0.156508
0.156695
0.156802
0.156873
0.15693
0.156972
0.15701
0.157028
0.157239
0.1575
0.15745
0.157782
0.157864
0.157785
0.157668
0.157539
0.157418
0.157314
0.157219
0.157167
0.157165
0.157198
0.157296
0.157602
0.158162
0.158383
0.158028
0.157627
0.15974
0.156557
0.15054
0.136369
0.126876
0.147959
0.174167
0.173044
0.168358
0.164502
0.157955
0.151184
0.148688
0.1516
0.161788
0.167487
0.166174
0.157134
0.142916
0.138875
0.152165
0.169963
0.139745
0.132253
0.139413
0.15704
0.16602
0.166147
0.166819
0.162967
0.148337
0.142943
0.149312
0.161171
0.17002
0.174833
0.166579
0.163264
0.162223
0.161702
0.161583
0.161626
0.162453
0.163766
0.164603
0.164836
0.163637
0.162007
0.162148
0.164145
0.165798
0.166552
0.166554
0.164944
0.161801
0.161352
0.16256
0.161379
0.158962
0.158307
0.159826
0.161499
0.162138
0.162118
0.163376
0.166626
0.169018
0.17029