/*--------------------------------*- C++ -*----------------------------------*\
  =========                 |
  \\      /  F ield         | OpenFOAM: The Open Source CFD Toolbox
   \\    /   O peration     | Website:  https://openfoam.org
    \\  /    A nd           | Version:  8
     \\/     M anipulation  |
\*---------------------------------------------------------------------------*/
FoamFile
{
    version     2.0;
    format      ascii;
    class       volScalarField;
    location    "1000";
    object      c_0;
}
// * * * * * * * * * * * * * * * * * * * * * * * * * * * * * * * * * * * * * //

dimensions      [1 -3 0 0 0 0 0];

internalField   nonuniform List<scalar> 
20000
(
0.00489325
0.0048341
0.00476295
0.00493246
0.00522734
0.00542592
0.00546862
0.00547188
0.00544855
0.0054118
0.00535744
0.00539308
0.00697695
0.00556508
0.00328989
0.017174
0.028524
0.0249542
0.0175325
0.00431004
0.00475767
0.0054134
0.0054671
0.00545207
0.00543749
0.00540855
0.00537926
0.00530787
0.00528749
0.00537437
0.00539368
0.00537991
0.0053847
0.00541614
0.005469
0.00551646
0.00553878
0.00554578
0.00552929
0.00548181
0.00541695
0.00536905
0.00540037
0.00547735
0.00550917
0.00552186
0.00547181
0.00544805
0.00537514
0.00536448
0.00540565
0.00547836
0.00559867
0.00582215
0.00623656
0.00647675
0.00423991
0.00424957
0.00545164
0.00551854
0.00550318
0.00549999
0.00547763
0.00545151
0.00549466
0.0056777
0.00506624
0.00492517
0.0053617
0.00510025
0.00524716
0.00550118
0.005469
0.00544838
0.00546921
0.00548371
0.00549148
0.00549455
0.00543642
0.00526883
0.00906513
0.0159804
0.0150777
0.016726
0.0067514
0.00476701
0.00563189
0.00565506
0.00561223
0.00558836
0.00561978
0.00569551
0.00569134
0.00557594
0.00551704
0.00549405
0.0054731
0.00548551
0.00565527
0.0055126
0.00538765
0.00544917
0.00544769
0.0054127
0.00534156
0.0052828
0.00534081
0.00545441
0.005591
0.00582461
0.00596013
0.00583588
0.00563794
0.00555714
0.00555377
0.00554976
0.00548704
0.00539334
0.00538358
0.00543065
0.00546278
0.00547393
0.00547309
0.00546308
0.00545059
0.00545513
0.00547079
0.0054846
0.00549501
0.00550475
0.00551699
0.00552351
0.0055109
0.00547451
0.00537927
0.00507862
0.00480021
0.00521935
0.00561658
0.00572693
0.00565633
0.00556296
0.00552326
0.00553465
0.00560158
0.00578321
0.00592532
0.00575203
0.00562117
0.00553929
0.00548936
0.00542741
0.00524399
0.00487039
0.00486069
0.00649969
0.00760947
0.00722296
0.00622668
0.00553097
0.00534273
0.00526422
0.00534353
0.00542378
0.00546818
0.00549019
0.00549633
0.00550463
0.00551003
0.0055184
0.0055106
0.0054928
0.00548525
0.00548767
0.00549661
0.00551665
0.00551151
0.00500662
0.00530403
0.00609713
0.00592549
0.00586136
0.00523
0.00417715
0.00787756
0.0147037
0.00653403
0.00539152
0.00554823
0.00554353
0.00555438
0.00555586
0.00553396
0.00551099
0.00549255
0.0054732
0.00547461
0.0055114
0.0055544
0.00555808
0.0158219
0.0152331
0.0146913
0.0148335
0.0154776
0.0161302
0.0163353
0.0163545
0.0162694
0.0161807
0.0160014
0.0163541
0.0287563
0.0256025
0.0085755
0.0201937
0.0315056
0.0257992
0.0122778
0.00901856
0.0147293
0.0161821
0.0163866
0.0164146
0.0164425
0.0164387
0.0164321
0.0163156
0.0162205
0.0162927
0.0161873
0.0161014
0.0161576
0.0162755
0.0164082
0.0164975
0.0165352
0.0165601
0.016568
0.0165501
0.0163997
0.0161117
0.0159641
0.0161789
0.0162829
0.0163125
0.0162932
0.0163457
0.01636
0.016384
0.0164211
0.0165238
0.0167405
0.0172123
0.0176926
0.0171263
0.0134265
0.0134775
0.0162517
0.0165081
0.0164726
0.0164504
0.016422
0.016403
0.0164896
0.0167406
0.0159416
0.0158345
0.0163275
0.0152791
0.0151219
0.0164533
0.0164584
0.0163966
0.0164191
0.0164419
0.0164534
0.0164557
0.0164264
0.0160271
0.0150121
0.0206123
0.0133266
0.0202398
0.0118784
0.0155889
0.0167326
0.0167946
0.0167324
0.0166807
0.0166793
0.0167442
0.0167756
0.0166825
0.0165962
0.0165216
0.0164655
0.0165515
0.016923
0.0164999
0.016206
0.0162987
0.0162756
0.0161894
0.0161543
0.0161858
0.0162832
0.0164021
0.016534
0.0168471
0.0175604
0.0184118
0.0171872
0.016458
0.0163718
0.0163757
0.0162673
0.0161187
0.0161573
0.0163095
0.0163988
0.0164258
0.0164194
0.016377
0.0163312
0.0163608
0.016414
0.0164434
0.0164574
0.0164663
0.016475
0.0164744
0.01642
0.0161922
0.0157784
0.0154408
0.0153439
0.0160777
0.0166832
0.0168138
0.0165873
0.0163588
0.0162811
0.0162984
0.0164704
0.0171767
0.0179284
0.0175984
0.0170524
0.0166527
0.0164012
0.0161345
0.0156574
0.0150335
0.0152496
0.0187126
0.0204592
0.0191827
0.0173695
0.0165325
0.0163698
0.0161717
0.0162366
0.0162626
0.0163701
0.0164124
0.0164597
0.0164787
0.0165058
0.0165162
0.0164987
0.0164611
0.0164446
0.0164528
0.0164784
0.0165224
0.0164116
0.0152293
0.0158023
0.0177998
0.0180087
0.0179714
0.0150723
0.0133635
0.0116416
0.0200387
0.0130407
0.0163993
0.0165457
0.0165352
0.0165444
0.0165449
0.0165206
0.0164985
0.0164829
0.0164695
0.0164867
0.0165538
0.016588
0.0166206
0.0262128
0.0251192
0.0246308
0.0244632
0.0256175
0.0257984
0.0260591
0.0263792
0.0267651
0.0267389
0.026215
0.0278475
0.0468724
0.0408779
0.0238046
0.023135
0.0292552
0.0284698
0.0142926
0.0187379
0.0250526
0.0269204
0.0272706
0.0273541
0.0274122
0.0274498
0.0274625
0.0274025
0.0273215
0.0272264
0.0270786
0.0269521
0.0270105
0.027186
0.0273383
0.0273967
0.027424
0.0274695
0.0275786
0.0277441
0.0277851
0.027205
0.0264074
0.026448
0.026779
0.0270171
0.0271619
0.0272968
0.0273529
0.0274101
0.0274135
0.0275015
0.0276061
0.0279598
0.0283639
0.0280744
0.0246058
0.0243215
0.0268604
0.0273434
0.0273272
0.0273398
0.0273214
0.0272952
0.0272505
0.0272784
0.027281
0.027369
0.0274583
0.0255935
0.0249993
0.0271408
0.0274238
0.0273974
0.0273924
0.0273981
0.0273976
0.0273912
0.027385
0.0274365
0.0280874
0.0286598
0.0117419
0.0314188
0.0268723
0.0274693
0.0276624
0.0277391
0.0277383
0.0276966
0.0276156
0.0275567
0.027555
0.0276014
0.0276087
0.0275775
0.0275785
0.0277601
0.0280677
0.0274844
0.0271001
0.0271206
0.0271063
0.0271071
0.0272054
0.027328
0.027379
0.027382
0.027344
0.0273191
0.0287191
0.0364399
0.0311182
0.0265629
0.0266794
0.0269625
0.0269855
0.026886
0.0269618
0.0271855
0.0273425
0.0273887
0.0273755
0.0272788
0.0271432
0.0272632
0.0273667
0.0273949
0.0273943
0.0273862
0.027371
0.0273275
0.0271437
0.0265682
0.0260625
0.0262457
0.0268468
0.0273978
0.0276732
0.027605
0.0272514
0.0270255
0.0269687
0.0269281
0.0269057
0.0276692
0.0288676
0.0288982
0.0282964
0.0274957
0.0268694
0.026642
0.0265892
0.0266077
0.0279713
0.0312926
0.031924
0.0302604
0.0285661
0.0278694
0.0276287
0.027463
0.027369
0.0273126
0.0273179
0.0273539
0.0273862
0.02742
0.0274331
0.0274204
0.0273774
0.0273363
0.027344
0.0273859
0.0274341
0.0274838
0.0271736
0.0258468
0.0264379
0.0285293
0.0292553
0.0288181
0.0246802
0.024654
0.0254489
0.031324
0.0275429
0.0275824
0.0274901
0.0274571
0.0274439
0.0274372
0.0274346
0.0274363
0.0274427
0.0274617
0.0275093
0.0275679
0.0276092
0.0275988
0.0350139
0.0339754
0.0334858
0.034896
0.0352507
0.0348699
0.0334745
0.0346744
0.0365101
0.0359635
0.0345562
0.0419397
0.0489382
0.0254073
0.0222965
0.0219574
0.028341
0.0393393
0.0263108
0.0296784
0.0349347
0.0376742
0.0382304
0.038361
0.0384711
0.038553
0.0385089
0.0383955
0.0383009
0.0382348
0.0381026
0.0379411
0.0379886
0.0381679
0.0382629
0.0382786
0.0382788
0.0383207
0.0385133
0.0390666
0.0398401
0.039219
0.036617
0.0358724
0.0367009
0.0374998
0.0379564
0.0382039
0.0383309
0.0384215
0.0385989
0.0383819
0.0381211
0.0382021
0.0387318
0.0386024
0.0368714
0.0360441
0.0377629
0.037878
0.037971
0.0380666
0.0381275
0.0380918
0.0379405
0.0379793
0.0381252
0.0381683
0.0379416
0.0363138
0.0356245
0.0377262
0.0383083
0.0383051
0.038304
0.038319
0.0383195
0.0383095
0.0383015
0.0383752
0.0389747
0.0374553
0.0191168
0.0383826
0.0388251
0.038549
0.038574
0.0386332
0.0386799
0.0386793
0.0385996
0.038499
0.038441
0.0384405
0.0384754
0.0385293
0.0386385
0.0388922
0.0390664
0.0385276
0.0381161
0.0380075
0.0380188
0.0381421
0.0382621
0.0383133
0.0383212
0.0382952
0.0381613
0.037761
0.0404085
0.0652472
0.0597691
0.0381092
0.0358992
0.0374405
0.037845
0.037949
0.0378469
0.0379134
0.0382045
0.0383494
0.0383619
0.038105
0.0377897
0.0381775
0.0383714
0.0383727
0.0383479
0.0383243
0.0382905
0.038202
0.0378498
0.0369301
0.0365942
0.0369643
0.0377282
0.0381858
0.0384446
0.038537
0.0383764
0.0381592
0.0379948
0.0377734
0.0375829
0.0379842
0.0388385
0.0391304
0.0390094
0.038339
0.0377833
0.0377289
0.0380077
0.0383504
0.0396917
0.0426961
0.0431796
0.0434284
0.0398018
0.038866
0.0385806
0.0384333
0.0383216
0.0382856
0.0382452
0.0382548
0.038263
0.0382905
0.0382928
0.0382694
0.0382239
0.0381964
0.0382191
0.0382872
0.0383888
0.0384598
0.0378152
0.036802
0.037642
0.0387988
0.0392231
0.0387746
0.0365967
0.0369048
0.038198
0.0409389
0.0391743
0.0385865
0.03842
0.0383731
0.0383567
0.0383506
0.0383513
0.0383557
0.0383648
0.0383881
0.0384434
0.0385586
0.0385597
0.0385414
0.0461698
0.045728
0.045906
0.0463919
0.0458311
0.0446228
0.0404237
0.0359927
0.0329039
0.0388135
0.0474706
0.0519254
0.0494851
0.0281979
0.0287251
0.043259
0.0502828
0.0496578
0.0428372
0.0387573
0.0431481
0.0492234
0.0502976
0.0502063
0.0503416
0.0502971
0.0499216
0.0495105
0.0493081
0.0492014
0.0490573
0.0488686
0.0488998
0.0490929
0.0491673
0.0491617
0.0490983
0.0490164
0.04925
0.0529146
0.0564022
0.0541043
0.0462002
0.0447353
0.0463602
0.0474563
0.0483338
0.048854
0.0492869
0.0494801
0.0491533
0.0483985
0.0480031
0.0485251
0.0491237
0.0494243
0.0486054
0.0483878
0.0490147
0.0490437
0.0491226
0.0492485
0.0492541
0.0482674
0.0469988
0.0471311
0.0478435
0.0476906
0.0470995
0.046847
0.0474181
0.0486786
0.0491017
0.0491862
0.049196
0.0491945
0.0491946
0.0491725
0.0491566
0.0491872
0.04942
0.0493322
0.0430444
0.0496806
0.0495086
0.0494599
0.0495069
0.0495596
0.0495963
0.049588
0.04954
0.0494562
0.0493782
0.0493451
0.0493496
0.0493975
0.0495567
0.0498779
0.0499686
0.0495472
0.0491664
0.0489592
0.0489392
0.0490747
0.0491879
0.0492239
0.0492235
0.0491683
0.0487973
0.0475106
0.0534523
0.0855945
0.0844791
0.0662317
0.0453483
0.04732
0.0486425
0.0489142
0.0487422
0.0486889
0.049037
0.0492396
0.0492565
0.0486024
0.0480508
0.0490026
0.0494064
0.0493567
0.0493036
0.0492626
0.0492176
0.0490881
0.0484957
0.0472091
0.0476024
0.0472952
0.0480336
0.0486062
0.049158
0.0496906
0.0498221
0.0494855
0.0490681
0.0487091
0.0485914
0.048882
0.0492372
0.0494128
0.0494769
0.0493559
0.0492245
0.049254
0.0492845
0.0493058
0.0501305
0.0536982
0.0553516
0.0689769
0.0517933
0.0494125
0.0492235
0.0491558
0.0491445
0.049166
0.0491669
0.04916
0.0491563
0.049169
0.0491736
0.0491614
0.0491341
0.0491156
0.0491466
0.0492404
0.04941
0.0494178
0.0484313
0.0479151
0.0488228
0.0492765
0.0493373
0.0492449
0.0489116
0.0488054
0.0491214
0.0506335
0.0508356
0.0498625
0.0493464
0.0492699
0.0492584
0.0492577
0.0492586
0.0492604
0.0492654
0.0492778
0.0493144
0.0495531
0.049534
0.0493576
0.0578269
0.0587986
0.0590568
0.0586566
0.0579439
0.0546501
0.0440731
0.0357535
0.0331478
0.0348107
0.037708
0.0465956
0.0656016
0.0509713
0.0557356
0.0597906
0.0599685
0.0590529
0.0545775
0.0454731
0.0496567
0.060808
0.0643734
0.06288
0.0620447
0.0613899
0.0608271
0.0604646
0.0602509
0.0601171
0.0600697
0.0596689
0.0596443
0.0598955
0.0600031
0.0599818
0.0597749
0.0591652
0.0618622
0.080487
0.0819311
0.0759352
0.0559416
0.0537155
0.0562994
0.0566313
0.0569792
0.0586152
0.0595731
0.0598664
0.0597805
0.0594249
0.0592886
0.0596942
0.0599272
0.060112
0.0600495
0.0599901
0.0601253
0.0602669
0.0603408
0.0603845
0.0595758
0.0567852
0.0545604
0.0556128
0.0576237
0.0579387
0.0581117
0.058739
0.0593873
0.0598243
0.0600115
0.0601145
0.060118
0.0600698
0.060052
0.0600105
0.0600054
0.0600124
0.0600611
0.0600098
0.0593276
0.0599947
0.0601185
0.0602353
0.0603776
0.060507
0.0606174
0.0606616
0.0605677
0.0604311
0.0603162
0.0602464
0.0602356
0.0602884
0.0605023
0.0609069
0.0609125
0.0605331
0.0601777
0.0599982
0.0599103
0.0600019
0.0600769
0.0601233
0.0601067
0.0597397
0.0581609
0.068
0.0880295
0.0921428
0.0895955
0.0635698
0.0515129
0.0576705
0.0593516
0.0597459
0.0596548
0.0595796
0.0599107
0.0602184
0.0601346
0.0589511
0.057765
0.0593915
0.0603599
0.0603058
0.0602026
0.0601989
0.0602141
0.0601161
0.0584111
0.0574519
0.0624685
0.057476
0.0583849
0.0593315
0.0601394
0.0608461
0.0610926
0.0606673
0.0600681
0.0597538
0.0598238
0.06003
0.0601343
0.0601744
0.0601981
0.0602121
0.0602183
0.0602073
0.06009
0.059578
0.0605687
0.0723039
0.0718446
0.10314
0.0695667
0.059197
0.0596664
0.0598926
0.059979
0.0600252
0.0600463
0.0600459
0.0600482
0.0600545
0.0600555
0.0600402
0.0600176
0.0600231
0.0600682
0.0601318
0.0602067
0.060144
0.0593731
0.0590887
0.0596399
0.0599746
0.0600703
0.060058
0.0600052
0.0599871
0.0600513
0.0605968
0.0618262
0.0612363
0.0602894
0.0601475
0.060139
0.0601381
0.0601373
0.0601353
0.0601195
0.0600511
0.0598926
0.0619309
0.0605299
0.059982
0.0682895
0.0700524
0.0703118
0.0700129
0.0694179
0.0679961
0.0650487
0.0612982
0.0599889
0.0560871
0.0466236
0.0497186
0.0690448
0.0741412
0.0713032
0.0706364
0.0699435
0.0691546
0.0655781
0.0540458
0.0526936
0.0597666
0.0714907
0.0718541
0.071367
0.0712246
0.0711371
0.071086
0.071111
0.0713482
0.071377
0.0706635
0.070367
0.0705185
0.0706359
0.0706162
0.0701545
0.0692812
0.0803253
0.0967771
0.0936498
0.0884068
0.063523
0.0663742
0.0695005
0.0665843
0.0634209
0.0668063
0.0698409
0.0705826
0.0707669
0.0708189
0.0708547
0.0708769
0.0708873
0.0708779
0.0708832
0.0709541
0.0710383
0.0710712
0.0710062
0.0708518
0.070149
0.0674827
0.0647838
0.0664927
0.069438
0.0699978
0.0700456
0.0703228
0.0705973
0.0708153
0.0708893
0.0709465
0.0709967
0.0710374
0.0708663
0.070865
0.0708685
0.0708935
0.0708406
0.0706423
0.0702944
0.0705663
0.0707991
0.0709738
0.0711289
0.0713058
0.0715132
0.0717033
0.0717751
0.0716101
0.071418
0.0712468
0.0711823
0.0712534
0.071714
0.0723111
0.0719756
0.0714161
0.0711438
0.0709991
0.0709794
0.0710087
0.0710635
0.0711024
0.0710195
0.0700351
0.0683855
0.0829328
0.0958733
0.0948706
0.0915299
0.0626295
0.0626965
0.0691526
0.0703608
0.0706666
0.0707421
0.0707387
0.0708151
0.0710602
0.0714173
0.0703234
0.0674471
0.0691023
0.0713479
0.0714071
0.0711248
0.0711522
0.0715472
0.071924
0.0694368
0.077872
0.0813549
0.0680828
0.0696912
0.0707396
0.0713422
0.071889
0.0722322
0.0718221
0.0710943
0.0708597
0.0709274
0.0709988
0.0710266
0.0710348
0.0710355
0.0710276
0.0710099
0.0709358
0.0705837
0.0690804
0.0784398
0.100499
0.0854598
0.111367
0.0812912
0.0685376
0.0702272
0.0706955
0.0708132
0.0708658
0.0709259
0.0709605
0.0709686
0.0709498
0.070926
0.0708791
0.0708551
0.0708682
0.0709096
0.0709432
0.0709449
0.0708792
0.0705522
0.070174
0.0703592
0.070691
0.0708646
0.0709113
0.0709085
0.0709097
0.0709465
0.071185
0.072251
0.0724739
0.0713558
0.0709677
0.0709957
0.0709926
0.0709876
0.0709497
0.0707808
0.0703164
0.0712106
0.07855
0.0729109
0.0698622
0.0742668
0.0796939
0.0798941
0.0796074
0.0789873
0.0792759
0.0792867
0.0797915
0.0801354
0.0786572
0.070431
0.0635087
0.0761241
0.0824044
0.0816816
0.0813344
0.0809133
0.0802789
0.0767236
0.0660497
0.0642664
0.0764433
0.081427
0.0817223
0.081754
0.0818257
0.0818701
0.0819356
0.0820877
0.0824283
0.0826313
0.081857
0.0813816
0.0814064
0.0814353
0.081439
0.0810486
0.07948
0.0801046
0.0948168
0.082326
0.0702541
0.0668608
0.0819254
0.086753
0.0833305
0.0707713
0.0728001
0.0792119
0.0810739
0.0814835
0.0816122
0.0816857
0.0817161
0.0817278
0.0817304
0.0817714
0.0818355
0.0818989
0.0819063
0.0817944
0.0813346
0.0801935
0.0788752
0.0783971
0.0797496
0.0808551
0.0811072
0.0811452
0.0812733
0.0814972
0.0816182
0.0816603
0.0815827
0.0816328
0.0816053
0.0815411
0.0813761
0.0817853
0.0817426
0.081665
0.081253
0.0810341
0.0814053
0.0816322
0.0817704
0.0818884
0.0820044
0.0821914
0.0824076
0.0825848
0.0826004
0.0825184
0.0823442
0.0822156
0.0823788
0.0830911
0.0838785
0.0832929
0.0823214
0.0820188
0.0819651
0.0819659
0.0819617
0.0819394
0.0819027
0.0818621
0.0816701
0.0795294
0.077305
0.0960256
0.0915281
0.0757406
0.0683003
0.0833211
0.0815025
0.0815972
0.0816477
0.0816639
0.0816806
0.0817374
0.0818503
0.0821618
0.0813886
0.0779616
0.0766778
0.0802163
0.0822054
0.0820803
0.0819789
0.0824749
0.0828685
0.0763713
0.077916
0.0853607
0.0809883
0.0824933
0.0827904
0.0827314
0.0831266
0.0838913
0.0832366
0.0820485
0.0818188
0.0818332
0.0818668
0.0818889
0.0819055
0.0819199
0.0818938
0.0818197
0.0815804
0.0810064
0.0789269
0.0765025
0.110566
0.0923515
0.10984
0.083641
0.0783966
0.0810005
0.0815358
0.0816421
0.0816743
0.0817014
0.0817382
0.081751
0.0817485
0.0817181
0.0816694
0.0816609
0.0817062
0.0817627
0.0817861
0.0817751
0.0816982
0.0814519
0.0810846
0.0811068
0.0814333
0.0816591
0.0817468
0.0817674
0.0817711
0.0817713
0.0818464
0.0823739
0.0834675
0.083269
0.0814007
0.0818629
0.0818648
0.0818187
0.0817037
0.0812403
0.0803293
0.0783597
0.0887369
0.0868612
0.0794079
0.080133
0.0897168
0.0904769
0.0905415
0.0898429
0.089588
0.0889808
0.0904862
0.0902662
0.0892047
0.0858111
0.0781561
0.0818103
0.0882069
0.0917336
0.0925768
0.0935966
0.093313
0.0907824
0.077972
0.0789437
0.0886703
0.0922713
0.0928435
0.0924443
0.0922732
0.0924105
0.0926958
0.093006
0.0934732
0.0933345
0.0924208
0.0921819
0.09234
0.0924593
0.0925114
0.0922912
0.0911352
0.0907454
0.097878
0.0738866
0.0709986
0.0795642
0.0963539
0.099956
0.0967726
0.0794576
0.0770565
0.083742
0.0889065
0.0909856
0.0919101
0.0922704
0.0924318
0.0924877
0.0925268
0.0925682
0.0926262
0.0927963
0.0927777
0.0923004
0.0909842
0.0900593
0.0898071
0.0904861
0.0914025
0.091892
0.0920332
0.0919653
0.0919515
0.092207
0.0922609
0.0921214
0.0918234
0.0914625
0.0912607
0.0913624
0.0920057
0.0928773
0.0932759
0.0933862
0.0926823
0.0921762
0.092425
0.0925121
0.092701
0.0927627
0.0927785
0.0928614
0.0930197
0.0930778
0.0932276
0.0933741
0.0933025
0.0931765
0.0932558
0.0939105
0.0949832
0.0951258
0.0938186
0.0930477
0.0929
0.092861
0.0928163
0.0927358
0.0926823
0.0926677
0.0927049
0.0926605
0.0828023
0.104591
0.0777953
0.0772838
0.0876575
0.100415
0.0940318
0.0929005
0.0926445
0.0925624
0.0925559
0.0925731
0.0926132
0.0926994
0.0928171
0.0909121
0.0862359
0.0878324
0.0920837
0.0927812
0.0926097
0.0927122
0.0924987
0.0837753
0.0782438
0.0912879
0.0939981
0.093873
0.0937188
0.0934723
0.0958483
0.0995035
0.0978112
0.092778
0.0924952
0.092499
0.0925259
0.0926691
0.0931095
0.0936517
0.0936012
0.0931129
0.0921637
0.0915624
0.0902409
0.08387
0.116169
0.097353
0.107615
0.0954109
0.0884345
0.0918599
0.0923731
0.0924706
0.0924738
0.0924737
0.0925096
0.0925428
0.092554
0.0925315
0.0925012
0.0924929
0.0925549
0.0926005
0.0926178
0.0925832
0.0924342
0.0921162
0.0918158
0.0919537
0.092306
0.0925088
0.0925811
0.0926033
0.0926053
0.0925955
0.0925898
0.0927432
0.0939103
0.0951737
0.0913593
0.0928712
0.0928641
0.0928426
0.0926725
0.0920292
0.0912883
0.0908017
0.0994506
0.0981252
0.0878614
0.0894529
0.100953
0.102377
0.10195
0.100834
0.0987418
0.0980409
0.0997297
0.100244
0.0999398
0.0982724
0.0928443
0.0861302
0.0911617
0.103098
0.111748
0.117228
0.116883
0.10911
0.0926021
0.0872134
0.0938395
0.102256
0.104618
0.101752
0.10128
0.104035
0.108668
0.107421
0.104929
0.103296
0.102615
0.102927
0.103256
0.103366
0.103361
0.103262
0.102909
0.106319
0.113807
0.0746044
0.0729045
0.0960212
0.10644
0.109244
0.102128
0.0850479
0.0807913
0.0886047
0.0958644
0.0989391
0.100798
0.102184
0.102859
0.103003
0.102986
0.102862
0.102928
0.102958
0.102995
0.102628
0.101753
0.101101
0.100985
0.101642
0.102349
0.102712
0.102718
0.102416
0.102068
0.102029
0.102181
0.101999
0.101847
0.102144
0.102376
0.102469
0.102509
0.103232
0.104143
0.10431
0.10321
0.10276
0.103026
0.103826
0.105441
0.1048
0.103846
0.103582
0.103676
0.103855
0.104004
0.104167
0.104174
0.104066
0.104073
0.104362
0.105182
0.106076
0.105327
0.104358
0.10385
0.103646
0.10356
0.103502
0.103474
0.103497
0.103663
0.104778
0.110926
0.115312
0.0783934
0.0783228
0.101476
0.110367
0.105694
0.104092
0.103726
0.103574
0.103481
0.103435
0.103416
0.103412
0.103399
0.102923
0.0986535
0.0959972
0.101373
0.103299
0.103296
0.103206
0.102776
0.0984262
0.0938844
0.10285
0.103473
0.103528
0.102939
0.102648
0.110937
0.11957
0.118948
0.104338
0.102819
0.10309
0.103204
0.103377
0.103906
0.104817
0.105747
0.107913
0.102936
0.102181
0.101506
0.104942
0.122852
0.104755
0.107092
0.0986032
0.101572
0.103096
0.103291
0.10331
0.103277
0.10326
0.103291
0.103326
0.103334
0.10332
0.103296
0.103335
0.103415
0.1035
0.103521
0.103276
0.102886
0.102717
0.102746
0.103
0.103244
0.103364
0.103405
0.10342
0.103426
0.103434
0.103446
0.1035
0.104057
0.104994
0.102158
0.103512
0.103527
0.103544
0.103531
0.10313
0.102298
0.10297
0.113716
0.10754
0.0987574
0.10366
0.110988
0.112529
0.111911
0.110693
0.107728
0.107903
0.11164
0.113874
0.113994
0.11394
0.110423
0.092926
0.0964039
0.119807
0.131454
0.137644
0.132364
0.119009
0.104666
0.0974189
0.0991564
0.104162
0.108262
0.107843
0.11775
0.129361
0.134291
0.128667
0.118509
0.112439
0.112134
0.113314
0.113925
0.114103
0.114224
0.114319
0.11434
0.118861
0.122098
0.0865671
0.0815671
0.108202
0.114856
0.116392
0.107953
0.092103
0.0871743
0.0966634
0.105952
0.109271
0.110751
0.111563
0.111234
0.110961
0.110415
0.110659
0.111928
0.113026
0.113592
0.113523
0.113223
0.112462
0.112004
0.112115
0.112533
0.112525
0.112108
0.111776
0.111918
0.112337
0.112677
0.112738
0.1128
0.113269
0.113713
0.113793
0.113518
0.113735
0.114336
0.114338
0.114031
0.113908
0.113495
0.113794
0.116176
0.116191
0.115248
0.114863
0.114816
0.114881
0.11497
0.115177
0.11521
0.115098
0.115054
0.115236
0.115702
0.116335
0.115985
0.114984
0.114521
0.114364
0.114303
0.114289
0.114318
0.114422
0.11476
0.117055
0.12558
0.120317
0.0828327
0.0812626
0.112721
0.120342
0.116789
0.115042
0.114523
0.114361
0.114302
0.114254
0.114189
0.114124
0.113998
0.113458
0.110179
0.105285
0.110258
0.113484
0.113985
0.11396
0.113572
0.111932
0.110249
0.112372
0.112952
0.113213
0.111935
0.110287
0.11802
0.132981
0.129908
0.111682
0.113253
0.113913
0.114097
0.114186
0.114302
0.114589
0.116869
0.127139
0.118364
0.112671
0.112119
0.127984
0.123741
0.111428
0.108564
0.102004
0.115854
0.11455
0.114241
0.114108
0.113973
0.113928
0.113964
0.114034
0.114055
0.114049
0.114025
0.114048
0.114132
0.114245
0.114297
0.113914
0.113524
0.113637
0.113866
0.114014
0.114106
0.114168
0.114197
0.114202
0.114208
0.114218
0.114249
0.114357
0.114622
0.114753
0.114073
0.114226
0.114222
0.11422
0.114233
0.11413
0.113376
0.1137
0.125009
0.116738
0.11021
0.118117
0.121396
0.121242
0.119806
0.11796
0.115025
0.119103
0.128363
0.129035
0.128667
0.127971
0.12351
0.105223
0.0955413
0.105367
0.118211
0.139098
0.136909
0.127256
0.121415
0.116637
0.108616
0.117936
0.123495
0.123239
0.133363
0.138244
0.14033
0.135034
0.124755
0.119684
0.120414
0.12304
0.124569
0.124977
0.125159
0.125416
0.125819
0.128739
0.132427
0.114712
0.101794
0.118048
0.122816
0.124597
0.123512
0.111997
0.103364
0.112175
0.119715
0.122826
0.1242
0.124144
0.119136
0.115372
0.115674
0.118987
0.121721
0.123302
0.123938
0.124174
0.123536
0.122364
0.121112
0.120791
0.121
0.121217
0.121535
0.122278
0.123017
0.123489
0.123721
0.123639
0.123499
0.123668
0.124167
0.124401
0.124283
0.124209
0.124709
0.12487
0.124913
0.125021
0.12518
0.124888
0.125295
0.126132
0.125924
0.125725
0.125773
0.125797
0.125715
0.125766
0.126123
0.126677
0.127484
0.127997
0.127246
0.126807
0.126145
0.125534
0.125281
0.125144
0.12511
0.125171
0.125425
0.125864
0.126495
0.128556
0.132571
0.119701
0.0956321
0.0898473
0.120877
0.1297
0.126866
0.12538
0.125227
0.125111
0.125041
0.124964
0.124811
0.124564
0.124115
0.123214
0.120512
0.116727
0.119419
0.123141
0.124573
0.124687
0.12449
0.123429
0.121669
0.120826
0.122144
0.124866
0.123987
0.121268
0.126264
0.14038
0.135579
0.122906
0.125097
0.12507
0.125027
0.125043
0.125168
0.12559
0.12711
0.14085
0.136012
0.12772
0.128281
0.127
0.114125
0.110299
0.122256
0.122272
0.127174
0.126103
0.125507
0.124502
0.124189
0.124468
0.124664
0.124753
0.124773
0.124722
0.124617
0.124541
0.124575
0.124703
0.124824
0.124671
0.124532
0.124711
0.124844
0.124888
0.124901
0.12496
0.124974
0.12496
0.124962
0.124982
0.125067
0.125244
0.125395
0.125278
0.125026
0.124992
0.124978
0.124976
0.124991
0.124991
0.124685
0.123861
0.12984
0.124192
0.122827
0.132778
0.132157
0.12884
0.123887
0.117047
0.125701
0.141781
0.149872
0.14822
0.144799
0.140021
0.12938
0.109557
0.0966989
0.102431
0.116539
0.138334
0.140254
0.134625
0.13316
0.133215
0.132753
0.136319
0.132074
0.126653
0.126288
0.12553
0.139125
0.140305
0.132534
0.127399
0.127782
0.132338
0.135809
0.136246
0.136153
0.136171
0.136578
0.138101
0.140298
0.132966
0.123088
0.12715
0.131358
0.133082
0.133022
0.130022
0.126338
0.13044
0.134357
0.136855
0.138507
0.136954
0.127886
0.120777
0.124023
0.129609
0.13244
0.13357
0.133885
0.133482
0.131412
0.128574
0.127489
0.12886
0.131253
0.132807
0.133781
0.134385
0.134597
0.134472
0.133851
0.133295
0.134212
0.134576
0.134763
0.13495
0.134982
0.135138
0.135563
0.135699
0.135727
0.135807
0.136033
0.136304
0.136297
0.136153
0.136028
0.13607
0.136197
0.136158
0.135988
0.135947
0.13624
0.137519
0.140365
0.143169
0.138954
0.136766
0.136222
0.136252
0.136106
0.136004
0.135995
0.136175
0.136528
0.136908
0.137192
0.137705
0.139142
0.137939
0.126016
0.117197
0.132155
0.137916
0.136578
0.13603
0.13592
0.135825
0.135757
0.135587
0.135265
0.134734
0.134177
0.133697
0.132525
0.129632
0.128819
0.131876
0.134418
0.134968
0.134867
0.133608
0.130884
0.129012
0.131117
0.138054
0.138967
0.136306
0.136505
0.145289
0.144624
0.141375
0.139555
0.136648
0.136052
0.13606
0.136843
0.139287
0.141989
0.148964
0.144202
0.137612
0.137789
0.119288
0.112413
0.110617
0.126947
0.136886
0.136881
0.136508
0.136045
0.135299
0.135452
0.135679
0.135601
0.135565
0.135527
0.135394
0.135192
0.135039
0.135047
0.135169
0.135321
0.135419
0.135502
0.135647
0.135728
0.135743
0.135697
0.135827
0.135792
0.135724
0.135734
0.135854
0.13616
0.136402
0.136276
0.136
0.13581
0.135761
0.135724
0.135725
0.135734
0.135796
0.135959
0.136281
0.138003
0.136212
0.135775
0.143768
0.141663
0.13514
0.119955
0.114193
0.125001
0.144447
0.159447
0.157378
0.152505
0.146632
0.136968
0.119549
0.105714
0.119988
0.145259
0.151355
0.146627
0.140404
0.139151
0.139079
0.144446
0.135614
0.125317
0.121149
0.117044
0.130019
0.148996
0.147601
0.14258
0.135607
0.134407
0.144027
0.150324
0.149806
0.147852
0.14708
0.147019
0.14715
0.146997
0.142225
0.136831
0.137131
0.140388
0.142336
0.143056
0.142957
0.142739
0.144357
0.146656
0.148335
0.148798
0.144343
0.134296
0.129323
0.134236
0.140228
0.14264
0.143003
0.142929
0.14224
0.140472
0.137952
0.137004
0.139623
0.143408
0.145362
0.145976
0.146199
0.146356
0.146658
0.143049
0.142496
0.150048
0.14751
0.145747
0.145824
0.14592
0.146143
0.146346
0.146419
0.146435
0.14649
0.1467
0.147326
0.147017
0.146767
0.146667
0.146665
0.146678
0.146561
0.146457
0.146441
0.146523
0.146994
0.15042
0.156643
0.149629
0.146548
0.146794
0.147599
0.14789
0.147608
0.147272
0.146979
0.147099
0.147258
0.147346
0.147599
0.14795
0.147605
0.145934
0.144536
0.14624
0.146996
0.146732
0.146675
0.146645
0.146516
0.146435
0.146284
0.145894
0.145146
0.144594
0.144455
0.143919
0.141424
0.138208
0.140081
0.143854
0.144926
0.145012
0.144132
0.141501
0.139046
0.138487
0.144381
0.148616
0.148917
0.148042
0.15119
0.155987
0.159738
0.154485
0.149271
0.148367
0.148543
0.151451
0.158013
0.157515
0.156001
0.150014
0.146963
0.14796
0.144215
0.132647
0.131869
0.145357
0.146606
0.146518
0.146467
0.146477
0.146545
0.14701
0.146787
0.146376
0.146277
0.14617
0.14595
0.145615
0.145461
0.145604
0.145816
0.145994
0.146119
0.146222
0.146329
0.146403
0.146406
0.146439
0.146656
0.14686
0.146633
0.146688
0.146841
0.147066
0.147126
0.146933
0.146696
0.146581
0.146515
0.146514
0.146476
0.146487
0.146564
0.146815
0.147367
0.147852
0.147265
0.146903
0.154081
0.150894
0.140052
0.1222
0.115175
0.12171
0.142098
0.163436
0.161623
0.157681
0.153344
0.14655
0.137054
0.128881
0.148088
0.15847
0.158841
0.153557
0.141496
0.13768
0.148544
0.158805
0.127336
0.11675
0.114091
0.121554
0.146301
0.157019
0.156247
0.154482
0.145657
0.144211
0.156571
0.161865
0.164064
0.162031
0.156894
0.155388
0.154617
0.153488
0.151009
0.148994
0.149409
0.151898
0.153689
0.15441
0.154213
0.153756
0.154017
0.155195
0.15641
0.156985
0.154452
0.147407
0.143588
0.147128
0.150979
0.151774
0.150667
0.1499
0.150178
0.150538
0.150168
0.149978
0.152135
0.155379
0.157066
0.157681
0.157976
0.159137
0.160226
0.152224
0.15793
0.17168
0.165617
0.156519
0.156267
0.156684
0.156889
0.157051
0.157076
0.157016
0.156861
0.157453
0.161361
0.157511
0.157064
0.157299
0.157366
0.157309
0.157201
0.157125
0.157129
0.157198
0.157736
0.162398
0.167832
0.160533
0.157121
0.157862
0.159712
0.160552
0.159661
0.158444
0.15773
0.157471
0.157505
0.157691
0.158198
0.158308
0.157526
0.157025
0.156875
0.157064
0.157182
0.157242
0.157364
0.157284
0.157228
0.157082
0.157001
0.156718
0.156095
0.155107
0.153941
0.152597
0.150209
0.148657
0.150816
0.153776
0.155075
0.155584
0.155857
0.155822
0.154995
0.153386
0.153889
0.155852
0.157486
0.15787
0.157974
0.168126
0.174388
0.167135
0.162255
0.166878
0.171536
0.177796
0.18362
0.171816
0.161883
0.158034
0.157066
0.157194
0.157001
0.155168
0.154187
0.156503
0.157029
0.157084
0.157086
0.157085
0.157413
0.158533
0.158114
0.156925
0.156673
0.156542
0.156315
0.155997
0.155876
0.156169
0.156509
0.156696
0.156803
0.156874
0.156931
0.156973
0.157012
0.15703
0.15724
0.157499
0.15745
0.157779
0.157861
0.157783
0.157666
0.157537
0.157417
0.157313
0.157219
0.157167
0.157164
0.157198
0.157295
0.157601
0.158159
0.158378
0.158025
0.157625
0.159742
0.156568
0.150599
0.136575
0.12711
0.148095
0.174146
0.173011
0.168341
0.164494
0.157972
0.151213
0.148734
0.15171
0.161805
0.167471
0.166155
0.157153
0.142959
0.138845
0.151983
0.170189
0.14011
0.132383
0.139485
0.157081
0.16601
0.166116
0.166743
0.162923
0.148352
0.14288
0.149164
0.161011
0.169897
0.174774
0.166617
0.163294
0.162246
0.16172
0.161603
0.161645
0.162464
0.16377
0.164604
0.164838
0.163646
0.162015
0.162152
0.164145
0.165797
0.166551
0.166554
0.164952
0.161818
0.16136
0.162554
0.161379
0.158967
0.158309
0.159825
0.161502
0.162148
0.162132
0.163382
0.166618
0.169009
0.170267
0.172078
0.172902
0.168971
0.164748