/*--------------------------------*- C++ -*----------------------------------*\
  =========                 |
  \\      /  F ield         | OpenFOAM: The Open Source CFD Toolbox
   \\    /   O peration     | Website:  https://openfoam.org
    \\  /    A nd           | Version:  8
     \\/     M anipulation  |
\*---------------------------------------------------------------------------*/
FoamFile
{
    version     2.0;
    format      ascii;
    class       volScalarField;
    location    "1000";
    object      p;
}
// * * * * * * * * * * * * * * * * * * * * * * * * * * * * * * * * * * * * * //

dimensions      [1 -1 -2 0 0 0 0];

internalField   nonuniform List<scalar> 
20000
(
-227028
-227029
-227030
-227030
-227030
-227030
-227030
-227025
-227011
-226989
-226969
-226954
-226943
-226958
-226977
-226957
-226940
-226946
-226959
-226967
-226962
-226949
-226925
-226895
-226867
-226847
-226837
-226832
-226828
-226825
-226822
-226817
-226808
-226794
-226771
-226739
-226703
-226670
-226646
-226630
-226620
-226615
-226609
-226597
-226578
-226554
-226534
-226521
-226512
-226506
-226498
-226487
-226470
-226451
-226437
-226431
-226430
-226427
-226417
-226387
-226301
-226182
-226105
-226084
-226079
-226078
-226077
-226075
-226071
-226068
-226062
-226050
-226026
-225976
-225891
-225780
-225668
-225585
-225542
-225527
-225522
-225518
-225518
-225516
-225518
-225517
-225512
-225503
-225487
-225467
-225449
-225434
-225417
-225393
-225357
-225313
-225278
-225260
-225252
-225248
-225242
-225231
-225205
-225163
-225111
-225060
-225020
-224992
-224973
-224954
-224932
-224912
-224908
-224923
-224941
-224953
-224958
-224959
-224959
-224957
-224952
-224945
-224938
-224931
-224927
-224922
-224915
-224901
-224878
-224846
-224817
-224798
-224788
-224784
-224780
-224775
-224768
-224762
-224757
-224749
-224734
-224711
-224686
-224668
-224659
-224653
-224649
-224646
-224643
-224636
-224624
-224607
-224592
-224580
-224572
-224566
-224564
-224564
-224565
-224565
-224566
-224567
-224567
-224568
-224567
-224566
-224564
-224561
-224558
-224555
-224553
-224550
-224546
-224541
-224536
-224533
-224532
-224531
-224529
-224525
-224522
-224522
-224526
-224527
-224522
-224517
-224519
-224519
-224518
-224518
-224516
-224512
-224506
-224501
-224497
-224495
-224493
-224492
-224492
-224491
-231968
-231968
-231969
-231970
-231970
-231972
-231974
-231974
-231964
-231943
-231920
-231902
-231887
-231907
-231934
-231934
-231930
-231928
-231925
-231914
-231905
-231891
-231868
-231838
-231811
-231791
-231780
-231773
-231770
-231767
-231763
-231757
-231747
-231731
-231709
-231680
-231646
-231612
-231585
-231568
-231559
-231555
-231555
-231551
-231538
-231516
-231491
-231471
-231457
-231448
-231438
-231426
-231410
-231393
-231381
-231373
-231367
-231362
-231353
-231323
-231244
-231134
-231057
-231030
-231023
-231021
-231018
-231015
-231012
-231008
-231003
-230993
-230977
-230939
-230863
-230745
-230619
-230528
-230486
-230474
-230474
-230479
-230478
-230477
-230464
-230458
-230452
-230441
-230425
-230407
-230388
-230370
-230350
-230325
-230293
-230257
-230225
-230206
-230196
-230191
-230185
-230173
-230150
-230114
-230068
-230018
-229974
-229939
-229911
-229887
-229863
-229840
-229841
-229863
-229884
-229897
-229903
-229904
-229903
-229900
-229895
-229887
-229879
-229874
-229870
-229866
-229859
-229846
-229821
-229786
-229755
-229737
-229730
-229727
-229724
-229720
-229713
-229706
-229699
-229689
-229674
-229652
-229628
-229611
-229602
-229597
-229594
-229590
-229586
-229579
-229568
-229554
-229540
-229528
-229518
-229513
-229513
-229512
-229510
-229509
-229509
-229510
-229510
-229510
-229510
-229509
-229507
-229504
-229501
-229498
-229496
-229493
-229489
-229484
-229479
-229476
-229474
-229473
-229471
-229469
-229466
-229466
-229468
-229467
-229467
-229471
-229463
-229462
-229461
-229460
-229457
-229452
-229447
-229443
-229440
-229438
-229436
-229435
-229434
-229434
-236942
-236943
-236943
-236944
-236945
-236949
-236954
-236959
-236955
-236938
-236916
-236896
-236890
-236911
-236919
-236922
-236923
-236914
-236899
-236887
-236881
-236868
-236847
-236821
-236796
-236776
-236762
-236753
-236748
-236743
-236737
-236729
-236718
-236704
-236684
-236656
-236620
-236582
-236551
-236532
-236526
-236530
-236539
-236543
-236538
-236523
-236500
-236474
-236451
-236433
-236419
-236406
-236393
-236379
-236364
-236351
-236338
-236329
-236317
-236289
-236228
-236138
-236063
-236028
-236015
-236008
-236000
-235994
-235989
-235982
-235976
-235969
-235955
-235925
-235859
-235751
-235626
-235528
-235477
-235459
-235455
-235458
-235451
-235453
-235440
-235433
-235425
-235412
-235397
-235382
-235366
-235348
-235325
-235299
-235267
-235234
-235206
-235189
-235180
-235173
-235165
-235153
-235135
-235109
-235071
-235023
-234972
-234924
-234886
-234857
-234832
-234808
-234810
-234845
-234876
-234889
-234891
-234889
-234887
-234883
-234876
-234867
-234859
-234854
-234852
-234848
-234841
-234829
-234805
-234770
-234738
-234719
-234710
-234707
-234704
-234701
-234695
-234687
-234678
-234667
-234655
-234636
-234613
-234594
-234584
-234580
-234576
-234572
-234566
-234559
-234549
-234537
-234523
-234511
-234503
-234498
-234496
-234492
-234491
-234491
-234491
-234491
-234491
-234490
-234490
-234489
-234487
-234485
-234482
-234480
-234477
-234475
-234471
-234465
-234460
-234457
-234455
-234453
-234452
-234451
-234449
-234447
-234445
-234442
-234440
-234446
-234440
-234440
-234440
-234439
-234436
-234432
-234427
-234423
-234420
-234418
-234416
-234414
-234413
-234413
-241950
-241950
-241949
-241950
-241953
-241958
-241966
-241976
-241980
-241966
-241944
-241927
-241927
-241926
-241916
-241912
-241918
-241918
-241899
-241896
-241892
-241876
-241856
-241836
-241817
-241800
-241784
-241768
-241754
-241742
-241732
-241724
-241717
-241707
-241688
-241656
-241616
-241576
-241543
-241521
-241522
-241539
-241560
-241567
-241566
-241558
-241542
-241516
-241486
-241459
-241442
-241431
-241419
-241405
-241385
-241365
-241346
-241332
-241317
-241290
-241236
-241159
-241094
-241062
-241048
-241038
-241027
-241016
-241006
-240996
-240986
-240978
-240960
-240922
-240854
-240760
-240659
-240573
-240516
-240486
-240472
-240463
-240448
-240458
-240454
-240447
-240436
-240422
-240409
-240396
-240382
-240366
-240344
-240315
-240280
-240247
-240223
-240209
-240200
-240192
-240182
-240171
-240157
-240138
-240108
-240065
-240011
-239961
-239922
-239888
-239857
-239834
-239840
-239881
-239917
-239924
-239918
-239911
-239906
-239901
-239893
-239884
-239876
-239872
-239870
-239866
-239860
-239848
-239827
-239796
-239765
-239745
-239734
-239727
-239722
-239720
-239714
-239705
-239695
-239685
-239674
-239659
-239637
-239617
-239604
-239599
-239596
-239592
-239585
-239577
-239569
-239557
-239544
-239532
-239525
-239519
-239513
-239501
-239507
-239513
-239514
-239512
-239510
-239509
-239508
-239507
-239505
-239503
-239501
-239498
-239495
-239492
-239488
-239482
-239477
-239475
-239474
-239472
-239470
-239470
-239469
-239466
-239459
-239456
-239457
-239459
-239457
-239456
-239456
-239456
-239454
-239450
-239446
-239441
-239437
-239434
-239431
-239429
-239429
-239430
-246994
-246992
-246991
-246992
-246993
-246995
-247003
-247011
-247016
-247010
-247000
-246990
-246979
-246948
-246929
-246933
-246948
-246953
-246936
-246940
-246937
-246917
-246901
-246889
-246875
-246860
-246841
-246817
-246790
-246768
-246756
-246752
-246749
-246741
-246721
-246685
-246645
-246611
-246579
-246549
-246555
-246584
-246616
-246625
-246624
-246621
-246611
-246587
-246553
-246522
-246502
-246490
-246479
-246465
-246444
-246419
-246396
-246379
-246363
-246332
-246273
-246195
-246138
-246114
-246105
-246096
-246085
-246074
-246061
-246048
-246035
-246021
-245995
-245943
-245865
-245780
-245703
-245640
-245590
-245555
-245532
-245514
-245493
-245507
-245506
-245498
-245485
-245472
-245458
-245446
-245432
-245417
-245396
-245365
-245329
-245297
-245276
-245264
-245256
-245247
-245236
-245225
-245211
-245194
-245168
-245131
-245089
-245053
-245022
-244979
-244940
-244935
-244953
-244982
-244994
-244989
-244978
-244968
-244960
-244954
-244947
-244938
-244931
-244927
-244925
-244921
-244913
-244900
-244879
-244853
-244829
-244813
-244804
-244793
-244783
-244781
-244774
-244762
-244751
-244741
-244729
-244714
-244695
-244677
-244664
-244656
-244652
-244647
-244641
-244634
-244626
-244617
-244608
-244599
-244585
-244567
-244560
-244538
-244562
-244578
-244580
-244577
-244574
-244572
-244571
-244571
-244571
-244570
-244567
-244562
-244557
-244550
-244543
-244536
-244533
-244531
-244530
-244528
-244527
-244527
-244526
-244521
-244515
-244512
-244514
-244515
-244513
-244512
-244512
-244512
-244510
-244507
-244501
-244496
-244491
-244487
-244483
-244478
-244481
-244485
-252080
-252075
-252072
-252069
-252064
-252058
-252049
-252043
-252042
-252046
-252054
-252061
-252055
-252022
-252005
-252008
-252017
-252016
-252006
-252009
-252009
-252002
-251994
-251986
-251974
-251957
-251932
-251899
-251866
-251843
-251833
-251829
-251826
-251817
-251796
-251763
-251730
-251705
-251676
-251648
-251659
-251685
-251718
-251719
-251713
-251713
-251711
-251692
-251659
-251625
-251600
-251583
-251571
-251557
-251537
-251512
-251487
-251467
-251446
-251408
-251340
-251264
-251216
-251196
-251187
-251180
-251171
-251161
-251149
-251134
-251117
-251092
-251047
-250975
-250893
-250826
-250777
-250737
-250699
-250666
-250642
-250623
-250606
-250606
-250599
-250588
-250574
-250559
-250545
-250531
-250517
-250500
-250480
-250450
-250416
-250386
-250368
-250357
-250349
-250340
-250327
-250313
-250296
-250277
-250252
-250223
-250194
-250172
-250153
-250119
-250089
-250097
-250118
-250133
-250109
-250091
-250075
-250061
-250052
-250044
-250037
-250028
-250020
-250015
-250015
-250010
-250001
-249988
-249968
-249945
-249925
-249914
-249909
-249894
-249882
-249887
-249877
-249861
-249846
-249831
-249817
-249803
-249790
-249777
-249764
-249754
-249747
-249740
-249734
-249727
-249722
-249718
-249716
-249710
-249690
-249662
-249666
-249649
-249676
-249690
-249688
-249685
-249685
-249687
-249687
-249686
-249684
-249680
-249675
-249668
-249660
-249650
-249638
-249630
-249626
-249624
-249622
-249621
-249622
-249622
-249621
-249617
-249612
-249609
-249608
-249609
-249608
-249606
-249605
-249605
-249603
-249599
-249593
-249588
-249584
-249580
-249575
-249565
-249571
-249579
-257208
-257197
-257187
-257178
-257170
-257159
-257141
-257122
-257113
-257115
-257125
-257148
-257164
-257149
-257138
-257127
-257114
-257105
-257102
-257101
-257103
-257112
-257120
-257116
-257104
-257081
-257050
-257013
-256983
-256966
-256958
-256954
-256950
-256941
-256921
-256892
-256866
-256849
-256838
-256828
-256842
-256855
-256858
-256845
-256835
-256833
-256842
-256835
-256810
-256776
-256744
-256719
-256701
-256682
-256659
-256632
-256607
-256584
-256555
-256509
-256443
-256380
-256338
-256315
-256302
-256296
-256292
-256282
-256267
-256241
-256201
-256149
-256085
-256015
-255955
-255915
-255889
-255867
-255842
-255815
-255793
-255775
-255760
-255747
-255734
-255720
-255705
-255688
-255672
-255655
-255638
-255620
-255601
-255575
-255544
-255517
-255499
-255488
-255481
-255473
-255459
-255440
-255420
-255399
-255377
-255352
-255327
-255309
-255299
-255297
-255292
-255299
-255316
-255320
-255282
-255252
-255223
-255201
-255185
-255174
-255163
-255153
-255144
-255139
-255138
-255137
-255130
-255118
-255099
-255074
-255055
-255045
-255045
-255037
-255028
-255029
-255019
-254999
-254976
-254954
-254936
-254926
-254921
-254914
-254903
-254891
-254880
-254871
-254865
-254861
-254858
-254860
-254862
-254861
-254853
-254834
-254845
-254845
-254855
-254850
-254841
-254836
-254836
-254837
-254835
-254831
-254825
-254818
-254811
-254805
-254798
-254788
-254777
-254766
-254760
-254756
-254755
-254754
-254755
-254755
-254753
-254750
-254747
-254743
-254741
-254740
-254739
-254735
-254733
-254735
-254734
-254730
-254725
-254720
-254716
-254712
-254709
-254702
-254704
-254715
-262366
-262351
-262338
-262327
-262319
-262312
-262300
-262281
-262268
-262264
-262271
-262294
-262316
-262316
-262300
-262273
-262242
-262229
-262234
-262242
-262244
-262253
-262265
-262261
-262244
-262215
-262179
-262147
-262131
-262126
-262124
-262120
-262114
-262104
-262085
-262057
-262034
-262026
-262030
-262037
-262043
-262036
-262014
-262004
-261996
-261991
-262001
-262005
-261988
-261959
-261925
-261891
-261861
-261834
-261808
-261782
-261757
-261729
-261693
-261646
-261595
-261552
-261518
-261488
-261466
-261455
-261448
-261431
-261400
-261350
-261285
-261223
-261172
-261129
-261093
-261067
-261048
-261030
-261011
-260991
-260972
-260957
-260942
-260927
-260913
-260896
-260879
-260859
-260838
-260817
-260798
-260781
-260763
-260741
-260713
-260686
-260669
-260659
-260652
-260645
-260632
-260613
-260590
-260568
-260547
-260524
-260499
-260480
-260477
-260494
-260509
-260515
-260515
-260502
-260474
-260447
-260416
-260390
-260369
-260351
-260333
-260318
-260307
-260300
-260295
-260295
-260294
-260284
-260265
-260241
-260221
-260212
-260210
-260212
-260210
-260202
-260190
-260169
-260140
-260110
-260088
-260083
-260088
-260087
-260077
-260061
-260047
-260038
-260033
-260030
-260030
-260036
-260041
-260044
-260052
-260060
-260068
-260074
-260078
-260071
-260057
-260042
-260028
-260017
-260009
-260002
-259996
-259989
-259982
-259976
-259970
-259964
-259956
-259947
-259940
-259935
-259932
-259929
-259927
-259925
-259923
-259920
-259916
-259912
-259909
-259907
-259906
-259903
-259901
-259904
-259902
-259899
-259895
-259891
-259886
-259881
-259880
-259884
-259883
-259889
-267544
-267537
-267530
-267521
-267512
-267505
-267495
-267480
-267467
-267464
-267471
-267486
-267510
-267513
-267482
-267434
-267397
-267394
-267411
-267432
-267444
-267448
-267443
-267431
-267412
-267378
-267340
-267315
-267315
-267325
-267330
-267328
-267319
-267305
-267281
-267253
-267233
-267226
-267229
-267239
-267229
-267211
-267192
-267191
-267185
-267181
-267184
-267185
-267174
-267151
-267120
-267084
-267049
-267021
-266997
-266976
-266951
-266921
-266881
-266836
-266796
-266766
-266739
-266712
-266685
-266661
-266634
-266598
-266548
-266487
-266428
-266384
-266352
-266325
-266298
-266271
-266249
-266231
-266212
-266194
-266177
-266162
-266149
-266137
-266125
-266111
-266097
-266077
-266051
-266024
-266001
-265983
-265966
-265945
-265919
-265894
-265877
-265867
-265858
-265851
-265842
-265828
-265806
-265780
-265756
-265730
-265704
-265684
-265679
-265689
-265717
-265710
-265694
-265682
-265670
-265647
-265625
-265607
-265591
-265573
-265551
-265528
-265510
-265499
-265489
-265486
-265489
-265483
-265466
-265444
-265424
-265411
-265400
-265397
-265408
-265404
-265391
-265368
-265340
-265310
-265285
-265280
-265296
-265300
-265288
-265268
-265252
-265243
-265239
-265235
-265231
-265242
-265253
-265261
-265273
-265304
-265313
-265318
-265324
-265318
-265305
-265286
-265265
-265249
-265238
-265228
-265219
-265208
-265198
-265190
-265183
-265176
-265170
-265163
-265157
-265151
-265145
-265140
-265136
-265133
-265130
-265126
-265122
-265118
-265114
-265112
-265111
-265110
-265109
-265108
-265106
-265104
-265101
-265098
-265094
-265090
-265088
-265092
-265095
-265093
-272752
-272758
-272759
-272755
-272746
-272734
-272718
-272702
-272690
-272688
-272695
-272708
-272734
-272740
-272701
-272654
-272624
-272627
-272643
-272655
-272670
-272676
-272667
-272653
-272638
-272601
-272562
-272543
-272550
-272567
-272578
-272578
-272568
-272546
-272515
-272485
-272466
-272458
-272456
-272458
-272440
-272428
-272414
-272410
-272404
-272398
-272386
-272379
-272372
-272355
-272329
-272297
-272267
-272248
-272233
-272217
-272196
-272169
-272132
-272087
-272043
-272008
-271981
-271957
-271932
-271900
-271859
-271812
-271759
-271705
-271655
-271617
-271590
-271566
-271541
-271515
-271491
-271470
-271452
-271435
-271416
-271398
-271384
-271374
-271366
-271357
-271348
-271334
-271309
-271277
-271247
-271225
-271206
-271184
-271159
-271134
-271117
-271108
-271100
-271093
-271086
-271077
-271058
-271031
-270999
-270966
-270937
-270918
-270909
-270909
-270935
-270920
-270906
-270902
-270891
-270874
-270862
-270852
-270839
-270824
-270802
-270776
-270752
-270735
-270724
-270719
-270722
-270718
-270705
-270687
-270666
-270650
-270634
-270628
-270642
-270642
-270628
-270610
-270589
-270565
-270545
-270541
-270553
-270552
-270538
-270515
-270496
-270487
-270484
-270480
-270473
-270486
-270509
-270524
-270531
-270563
-270575
-270580
-270579
-270568
-270556
-270542
-270530
-270522
-270515
-270506
-270493
-270476
-270458
-270443
-270432
-270422
-270414
-270407
-270401
-270396
-270390
-270384
-270379
-270376
-270373
-270370
-270366
-270361
-270357
-270355
-270354
-270354
-270353
-270349
-270348
-270346
-270343
-270340
-270337
-270336
-270336
-270331
-270338
-270335
-278005
-278016
-278027
-278033
-278027
-278006
-277978
-277955
-277942
-277940
-277948
-277963
-277983
-277995
-277983
-277962
-277939
-277934
-277928
-277913
-277913
-277922
-277922
-277917
-277912
-277885
-277860
-277848
-277852
-277860
-277866
-277866
-277853
-277826
-277790
-277757
-277737
-277728
-277723
-277714
-277688
-277683
-277677
-277674
-277666
-277645
-277615
-277599
-277595
-277587
-277566
-277539
-277517
-277511
-277507
-277495
-277476
-277453
-277421
-277380
-277333
-277292
-277262
-277236
-277209
-277173
-277130
-277086
-277041
-276993
-276943
-276899
-276864
-276836
-276811
-276787
-276765
-276746
-276731
-276717
-276699
-276679
-276661
-276650
-276643
-276637
-276629
-276618
-276598
-276567
-276531
-276501
-276474
-276448
-276422
-276398
-276381
-276376
-276374
-276371
-276365
-276356
-276339
-276308
-276268
-276231
-276205
-276191
-276184
-276181
-276193
-276181
-276170
-276161
-276151
-276145
-276140
-276133
-276120
-276100
-276073
-276047
-276025
-276009
-275998
-275992
-275991
-275989
-275981
-275966
-275947
-275931
-275919
-275918
-275926
-275921
-275908
-275896
-275884
-275870
-275857
-275852
-275849
-275841
-275827
-275803
-275779
-275769
-275768
-275769
-275766
-275778
-275803
-275820
-275829
-275851
-275855
-275853
-275843
-275838
-275830
-275823
-275819
-275817
-275813
-275806
-275793
-275774
-275752
-275733
-275717
-275705
-275695
-275687
-275681
-275676
-275670
-275664
-275659
-275656
-275654
-275651
-275647
-275643
-275639
-275636
-275634
-275634
-275633
-275628
-275627
-275625
-275622
-275619
-275617
-275618
-275620
-275618
-275621
-275618
-283302
-283316
-283335
-283352
-283351
-283320
-283276
-283244
-283231
-283230
-283238
-283252
-283264
-283274
-283284
-283286
-283283
-283273
-283250
-283215
-283196
-283198
-283211
-283219
-283223
-283220
-283216
-283209
-283203
-283193
-283189
-283185
-283165
-283133
-283100
-283071
-283050
-283039
-283031
-283012
-282975
-282968
-282972
-282972
-282961
-282929
-282886
-282864
-282862
-282860
-282844
-282823
-282810
-282810
-282807
-282794
-282778
-282757
-282729
-282690
-282646
-282607
-282578
-282554
-282526
-282490
-282447
-282403
-282358
-282310
-282257
-282209
-282170
-282138
-282116
-282095
-282075
-282059
-282047
-282036
-282021
-282000
-281978
-281962
-281955
-281952
-281946
-281934
-281913
-281880
-281842
-281807
-281776
-281748
-281722
-281699
-281683
-281682
-281684
-281683
-281677
-281665
-281643
-281610
-281573
-281541
-281520
-281510
-281506
-281503
-281491
-281462
-281453
-281459
-281462
-281461
-281456
-281447
-281429
-281401
-281371
-281350
-281335
-281323
-281310
-281300
-281295
-281296
-281292
-281280
-281264
-281249
-281241
-281241
-281243
-281237
-281225
-281215
-281209
-281204
-281198
-281190
-281176
-281166
-281152
-281125
-281097
-281086
-281090
-281099
-281108
-281117
-281131
-281142
-281155
-281158
-281151
-281150
-281141
-281144
-281140
-281137
-281137
-281135
-281133
-281127
-281116
-281099
-281080
-281062
-281044
-281028
-281014
-281004
-280998
-280992
-280986
-280980
-280976
-280973
-280971
-280968
-280965
-280961
-280957
-280953
-280952
-280951
-280950
-280947
-280945
-280942
-280939
-280935
-280935
-280936
-280940
-280947
-280942
-280935
-288645
-288659
-288678
-288698
-288696
-288665
-288625
-288598
-288588
-288584
-288581
-288577
-288568
-288561
-288569
-288588
-288615
-288614
-288593
-288558
-288528
-288521
-288548
-288563
-288565
-288570
-288572
-288573
-288562
-288544
-288539
-288532
-288504
-288472
-288445
-288423
-288406
-288390
-288375
-288352
-288316
-288301
-288305
-288303
-288290
-288261
-288222
-288195
-288190
-288187
-288173
-288156
-288146
-288141
-288133
-288120
-288105
-288087
-288061
-288027
-287986
-287948
-287918
-287893
-287869
-287839
-287799
-287750
-287696
-287635
-287578
-287540
-287510
-287479
-287464
-287450
-287431
-287413
-287400
-287389
-287375
-287353
-287327
-287307
-287298
-287296
-287292
-287278
-287253
-287220
-287186
-287154
-287124
-287097
-287072
-287053
-287041
-287039
-287037
-287033
-287021
-287002
-286979
-286955
-286929
-286903
-286881
-286869
-286863
-286855
-286824
-286778
-286765
-286793
-286809
-286811
-286805
-286792
-286766
-286734
-286709
-286695
-286687
-286678
-286664
-286650
-286641
-286642
-286639
-286628
-286614
-286601
-286592
-286588
-286587
-286585
-286580
-286574
-286570
-286570
-286572
-286560
-286540
-286525
-286508
-286476
-286443
-286433
-286445
-286465
-286483
-286492
-286493
-286493
-286482
-286465
-286456
-286474
-286486
-286494
-286493
-286490
-286489
-286487
-286485
-286482
-286474
-286462
-286448
-286435
-286420
-286401
-286379
-286362
-286352
-286344
-286338
-286333
-286328
-286326
-286323
-286321
-286318
-286315
-286311
-286308
-286306
-286305
-286304
-286302
-286300
-286297
-286293
-286289
-286287
-286290
-286294
-286302
-286295
-286288
-294025
-294029
-294036
-294043
-294037
-294025
-294016
-294012
-294004
-293989
-293965
-293935
-293902
-293882
-293885
-293919
-293958
-293962
-293948
-293922
-293886
-293873
-293904
-293911
-293905
-293902
-293910
-293927
-293919
-293907
-293913
-293909
-293881
-293853
-293827
-293808
-293796
-293783
-293764
-293740
-293708
-293682
-293676
-293671
-293659
-293638
-293609
-293587
-293577
-293568
-293553
-293536
-293519
-293502
-293488
-293477
-293464
-293450
-293432
-293405
-293368
-293328
-293291
-293263
-293240
-293213
-293170
-293109
-293039
-292977
-292935
-292915
-292890
-292859
-292849
-292848
-292835
-292814
-292796
-292781
-292761
-292733
-292701
-292676
-292663
-292667
-292666
-292655
-292635
-292609
-292580
-292548
-292514
-292482
-292458
-292443
-292437
-292432
-292426
-292414
-292395
-292376
-292362
-292349
-292331
-292307
-292280
-292257
-292242
-292231
-292210
-292174
-292155
-292177
-292193
-292194
-292185
-292167
-292138
-292110
-292091
-292081
-292075
-292069
-292062
-292052
-292042
-292034
-292023
-292012
-291999
-291986
-291974
-291964
-291959
-291961
-291968
-291971
-291970
-291972
-291975
-291961
-291938
-291919
-291898
-291861
-291823
-291813
-291838
-291871
-291892
-291895
-291889
-291880
-291849
-291821
-291817
-291846
-291870
-291882
-291883
-291881
-291878
-291876
-291875
-291874
-291868
-291858
-291848
-291840
-291830
-291817
-291796
-291771
-291750
-291736
-291727
-291721
-291717
-291715
-291713
-291710
-291708
-291705
-291702
-291700
-291698
-291696
-291695
-291693
-291690
-291687
-291682
-291677
-291673
-291673
-291676
-291680
-291677
-291672
-299437
-299424
-299408
-299390
-299375
-299375
-299396
-299425
-299422
-299393
-299357
-299322
-299290
-299270
-299272
-299300
-299328
-299337
-299331
-299308
-299276
-299258
-299257
-299244
-299231
-299233
-299269
-299301
-299300
-299301
-299315
-299317
-299303
-299282
-299257
-299232
-299222
-299211
-299194
-299170
-299138
-299107
-299090
-299081
-299070
-299051
-299031
-299016
-299005
-298993
-298976
-298954
-298924
-298892
-298873
-298867
-298861
-298852
-298838
-298817
-298786
-298748
-298710
-298679
-298652
-298614
-298554
-298481
-298414
-298371
-298351
-298340
-298317
-298295
-298283
-298284
-298274
-298254
-298230
-298207
-298181
-298151
-298119
-298086
-298069
-298083
-298085
-298077
-298064
-298045
-298019
-297982
-297937
-297899
-297876
-297863
-297860
-297857
-297848
-297833
-297817
-297804
-297794
-297782
-297763
-297736
-297704
-297675
-297655
-297647
-297641
-297623
-297606
-297608
-297613
-297609
-297594
-297570
-297545
-297525
-297511
-297502
-297496
-297494
-297493
-297487
-297476
-297461
-297446
-297435
-297424
-297412
-297398
-297385
-297377
-297378
-297390
-297401
-297406
-297410
-297411
-297394
-297374
-297357
-297335
-297296
-297258
-297239
-297261
-297305
-297328
-297328
-297321
-297310
-297285
-297263
-297268
-297292
-297307
-297313
-297313
-297310
-297307
-297304
-297304
-297304
-297299
-297289
-297278
-297269
-297262
-297254
-297242
-297222
-297197
-297174
-297158
-297149
-297144
-297141
-297139
-297137
-297135
-297133
-297131
-297128
-297126
-297124
-297122
-297119
-297116
-297112
-297107
-297101
-297095
-297091
-297090
-297089
-297088
-297087
-304889
-304860
-304823
-304786
-304759
-304760
-304801
-304839
-304834
-304802
-304770
-304743
-304718
-304704
-304713
-304731
-304747
-304753
-304745
-304719
-304699
-304692
-304643
-304606
-304596
-304629
-304690
-304724
-304729
-304731
-304734
-304734
-304738
-304736
-304721
-304696
-304681
-304667
-304649
-304625
-304595
-304566
-304547
-304536
-304522
-304502
-304484
-304471
-304462
-304451
-304436
-304411
-304376
-304339
-304315
-304306
-304300
-304289
-304275
-304256
-304232
-304201
-304170
-304143
-304110
-304059
-303990
-303918
-303863
-303831
-303817
-303808
-303797
-303787
-303768
-303753
-303736
-303714
-303690
-303666
-303642
-303618
-303590
-303558
-303543
-303551
-303550
-303541
-303529
-303512
-303486
-303443
-303395
-303359
-303340
-303331
-303330
-303324
-303314
-303302
-303290
-303278
-303265
-303247
-303222
-303190
-303158
-303132
-303112
-303107
-303109
-303099
-303087
-303079
-303072
-303057
-303035
-303011
-302991
-302979
-302969
-302960
-302953
-302951
-302949
-302939
-302928
-302916
-302907
-302905
-302900
-302890
-302875
-302860
-302849
-302847
-302855
-302865
-302873
-302881
-302887
-302878
-302863
-302848
-302829
-302801
-302773
-302749
-302746
-302773
-302799
-302804
-302798
-302788
-302773
-302765
-302770
-302780
-302784
-302784
-302781
-302777
-302774
-302772
-302771
-302769
-302763
-302754
-302743
-302734
-302726
-302720
-302711
-302697
-302677
-302655
-302637
-302626
-302617
-302609
-302603
-302600
-302599
-302597
-302595
-302592
-302589
-302587
-302585
-302583
-302579
-302574
-302566
-302559
-302553
-302549
-302546
-302545
-302543
-302543
-310360
-310337
-310304
-310267
-310236
-310240
-310273
-310291
-310279
-310253
-310227
-310203
-310181
-310177
-310195
-310213
-310216
-310207
-310201
-310177
-310148
-310145
-310100
-310066
-310067
-310108
-310158
-310184
-310185
-310174
-310156
-310152
-310162
-310177
-310185
-310182
-310169
-310154
-310135
-310110
-310080
-310053
-310037
-310028
-310015
-309996
-309975
-309960
-309949
-309939
-309923
-309901
-309874
-309846
-309820
-309801
-309784
-309766
-309748
-309729
-309707
-309684
-309666
-309653
-309624
-309571
-309501
-309427
-309367
-309325
-309298
-309288
-309290
-309288
-309276
-309247
-309222
-309201
-309181
-309162
-309142
-309121
-309098
-309076
-309063
-309058
-309049
-309040
-309027
-309007
-308975
-308931
-308889
-308862
-308848
-308844
-308843
-308832
-308819
-308808
-308797
-308784
-308766
-308741
-308710
-308677
-308648
-308627
-308610
-308609
-308614
-308603
-308593
-308586
-308574
-308554
-308530
-308505
-308486
-308474
-308465
-308455
-308446
-308439
-308434
-308426
-308419
-308415
-308418
-308425
-308424
-308415
-308405
-308389
-308371
-308361
-308360
-308366
-308374
-308383
-308393
-308404
-308396
-308379
-308364
-308350
-308338
-308322
-308306
-308308
-308325
-308333
-308325
-308315
-308305
-308298
-308295
-308293
-308290
-308287
-308283
-308280
-308278
-308276
-308273
-308268
-308262
-308253
-308243
-308235
-308228
-308222
-308214
-308201
-308183
-308163
-308150
-308142
-308134
-308125
-308113
-308104
-308099
-308096
-308093
-308090
-308088
-308086
-308084
-308080
-308075
-308067
-308060
-308053
-308048
-308044
-308041
-308043
-308044
-308044
-315819
-315817
-315811
-315800
-315788
-315791
-315796
-315789
-315768
-315745
-315732
-315723
-315704
-315697
-315707
-315716
-315708
-315693
-315695
-315682
-315650
-315634
-315615
-315603
-315605
-315624
-315650
-315664
-315659
-315632
-315597
-315587
-315594
-315612
-315643
-315677
-315682
-315672
-315654
-315627
-315596
-315570
-315556
-315549
-315541
-315527
-315509
-315492
-315476
-315460
-315444
-315428
-315411
-315389
-315365
-315340
-315317
-315293
-315268
-315243
-315217
-315198
-315192
-315190
-315173
-315133
-315070
-314988
-314907
-314843
-314797
-314772
-314777
-314778
-314790
-314770
-314742
-314722
-314707
-314691
-314671
-314649
-314633
-314621
-314610
-314597
-314584
-314570
-314548
-314517
-314481
-314447
-314421
-314403
-314391
-314385
-314385
-314377
-314363
-314349
-314336
-314319
-314296
-314266
-314232
-314200
-314176
-314162
-314155
-314156
-314155
-314143
-314133
-314127
-314116
-314099
-314079
-314055
-314031
-314012
-313997
-313983
-313969
-313957
-313951
-313949
-313950
-313956
-313966
-313975
-313971
-313962
-313958
-313951
-313937
-313923
-313915
-313914
-313919
-313926
-313934
-313948
-313949
-313936
-313918
-313907
-313904
-313903
-313896
-313894
-313893
-313891
-313880
-313869
-313861
-313855
-313849
-313843
-313837
-313831
-313826
-313821
-313817
-313815
-313811
-313805
-313798
-313789
-313780
-313773
-313768
-313763
-313755
-313741
-313721
-313702
-313690
-313684
-313680
-313675
-313664
-313651
-313638
-313630
-313625
-313622
-313619
-313616
-313612
-313607
-313601
-313595
-313591
-313586
-313581
-313575
-313570
-313579
-313582
-313582
-321257
-321264
-321278
-321298
-321328
-321347
-321341
-321320
-321292
-321273
-321274
-321278
-321265
-321248
-321235
-321225
-321216
-321211
-321209
-321206
-321205
-321195
-321184
-321178
-321174
-321175
-321181
-321182
-321169
-321134
-321085
-321062
-321064
-321086
-321138
-321193
-321210
-321204
-321188
-321165
-321141
-321121
-321109
-321103
-321099
-321092
-321079
-321061
-321040
-321022
-321009
-320997
-320982
-320961
-320938
-320913
-320888
-320861
-320831
-320799
-320771
-320752
-320744