/*--------------------------------*- C++ -*----------------------------------*\
  =========                 |
  \\      /  F ield         | OpenFOAM: The Open Source CFD Toolbox
   \\    /   O peration     | Website:  https://openfoam.org
    \\  /    A nd           | Version:  8
     \\/     M anipulation  |
\*---------------------------------------------------------------------------*/
FoamFile
{
    version     2.0;
    format      ascii;
    class       volScalarField;
    location    "1000";
    object      p_rgh;
}
// * * * * * * * * * * * * * * * * * * * * * * * * * * * * * * * * * * * * * //

dimensions      [1 -1 -2 0 0 0 0];

internalField   nonuniform List<scalar> 
20000
(
-224567
-224568
-224569
-224569
-224568
-224568
-224568
-224563
-224549
-224527
-224507
-224492
-224478
-224495
-224519
-224475
-224438
-224450
-224476
-224507
-224502
-224487
-224463
-224433
-224405
-224386
-224375
-224370
-224366
-224363
-224360
-224355
-224346
-224332
-224309
-224277
-224241
-224208
-224184
-224168
-224159
-224153
-224147
-224136
-224116
-224092
-224073
-224059
-224051
-224044
-224036
-224025
-224008
-223988
-223974
-223967
-223970
-223967
-223955
-223925
-223839
-223720
-223644
-223622
-223617
-223615
-223615
-223614
-223610
-223607
-223601
-223588
-223564
-223514
-223429
-223318
-223206
-223123
-223081
-223066
-223053
-223038
-223040
-223035
-223054
-223056
-223050
-223041
-223025
-223005
-222987
-222972
-222954
-222931
-222895
-222851
-222816
-222798
-222790
-222786
-222781
-222769
-222744
-222702
-222649
-222598
-222558
-222530
-222511
-222492
-222470
-222449
-222446
-222461
-222479
-222491
-222496
-222498
-222497
-222495
-222490
-222483
-222476
-222470
-222465
-222460
-222453
-222439
-222416
-222384
-222355
-222336
-222326
-222322
-222318
-222314
-222307
-222301
-222295
-222287
-222272
-222249
-222224
-222206
-222197
-222191
-222187
-222184
-222181
-222174
-222162
-222145
-222130
-222119
-222111
-222103
-222099
-222100
-222102
-222103
-222104
-222105
-222106
-222106
-222105
-222104
-222102
-222099
-222096
-222093
-222091
-222088
-222085
-222079
-222074
-222071
-222070
-222070
-222067
-222062
-222060
-222060
-222065
-222067
-222056
-222039
-222055
-222057
-222056
-222056
-222054
-222050
-222044
-222039
-222035
-222033
-222031
-222030
-222030
-222029
-224529
-224532
-224536
-224536
-224533
-224531
-224532
-224532
-224523
-224502
-224480
-224460
-224381
-224417
-224532
-224473
-224410
-224438
-224504
-224510
-224472
-224450
-224426
-224396
-224369
-224349
-224338
-224332
-224329
-224325
-224322
-224316
-224306
-224290
-224267
-224238
-224203
-224169
-224142
-224125
-224117
-224115
-224115
-224110
-224096
-224074
-224050
-224029
-224016
-224006
-223996
-223983
-223966
-223947
-223932
-223927
-223941
-223935
-223911
-223880
-223802
-223692
-223614
-223588
-223581
-223577
-223578
-223576
-223570
-223571
-223567
-223551
-223535
-223498
-223421
-223303
-223177
-223086
-223044
-223034
-223039
-223016
-223051
-223015
-223045
-223020
-223009
-222997
-222981
-222963
-222945
-222926
-222906
-222881
-222850
-222814
-222783
-222763
-222752
-222749
-222744
-222732
-222709
-222673
-222627
-222577
-222532
-222497
-222469
-222443
-222415
-222388
-222395
-222420
-222443
-222455
-222461
-222463
-222463
-222459
-222453
-222445
-222437
-222432
-222429
-222424
-222417
-222404
-222378
-222344
-222313
-222295
-222288
-222286
-222286
-222283
-222277
-222266
-222256
-222245
-222231
-222210
-222187
-222170
-222160
-222151
-222144
-222142
-222140
-222135
-222126
-222114
-222102
-222093
-222082
-222059
-222049
-222055
-222063
-222066
-222067
-222069
-222069
-222069
-222068
-222067
-222065
-222062
-222059
-222056
-222054
-222051
-222047
-222042
-222037
-222033
-222032
-222037
-222033
-222019
-222016
-222015
-222033
-222041
-222049
-222011
-222038
-222020
-222018
-222017
-222015
-222010
-222004
-222000
-221998
-221995
-221994
-221992
-221991
-221991
-224455
-224465
-224469
-224471
-224463
-224465
-224468
-224470
-224463
-224446
-224428
-224394
-224224
-224297
-224453
-224461
-224409
-224408
-224514
-224464
-224403
-224374
-224351
-224324
-224298
-224278
-224264
-224256
-224251
-224247
-224242
-224235
-224224
-224208
-224187
-224158
-224122
-224084
-224052
-224031
-224025
-224034
-224050
-224054
-224045
-224029
-224004
-223977
-223954
-223935
-223921
-223908
-223894
-223876
-223858
-223847
-223864
-223858
-223824
-223792
-223731
-223641
-223566
-223531
-223519
-223511
-223504
-223497
-223490
-223500
-223499
-223473
-223457
-223427
-223362
-223254
-223128
-223030
-222980
-222961
-222951
-222949
-223088
-222920
-222947
-222935
-222925
-222911
-222896
-222882
-222867
-222849
-222826
-222799
-222767
-222734
-222707
-222689
-222676
-222674
-222670
-222658
-222640
-222614
-222575
-222526
-222474
-222426
-222389
-222360
-222323
-222232
-222280
-222354
-222384
-222395
-222397
-222396
-222393
-222387
-222378
-222369
-222361
-222358
-222356
-222351
-222344
-222331
-222307
-222273
-222241
-222222
-222215
-222216
-222218
-222213
-222202
-222189
-222178
-222168
-222158
-222142
-222119
-222101
-222091
-222080
-222066
-222062
-222061
-222060
-222056
-222046
-222033
-222020
-222000
-221967
-221959
-221970
-221984
-221990
-221992
-221993
-221993
-221993
-221993
-221991
-221990
-221987
-221984
-221982
-221980
-221977
-221973
-221968
-221962
-221958
-221959
-221969
-221962
-221944
-221936
-221937
-221970
-221968
-221960
-221915
-221941
-221941
-221941
-221941
-221938
-221934
-221929
-221925
-221922
-221920
-221917
-221915
-221914
-221914
-224362
-224374
-224379
-224363
-224362
-224371
-224397
-224392
-224373
-224366
-224361
-224255
-224173
-224454
-224480
-224481
-224410
-224278
-224416
-224372
-224304
-224255
-224229
-224208
-224187
-224169
-224154
-224140
-224126
-224115
-224106
-224101
-224093
-224081
-224061
-224029
-223988
-223948
-223913
-223884
-223875
-223900
-223952
-223969
-223957
-223940
-223918
-223890
-223858
-223830
-223811
-223802
-223794
-223778
-223753
-223733
-223735
-223731
-223695
-223667
-223612
-223534
-223468
-223436
-223425
-223414
-223401
-223390
-223383
-223392
-223391
-223357
-223332
-223294
-223226
-223132
-223031
-222946
-222889
-222858
-222836
-222846
-223052
-222830
-222820
-222816
-222805
-222791
-222777
-222764
-222751
-222736
-222714
-222685
-222650
-222616
-222591
-222574
-222563
-222561
-222557
-222547
-222533
-222512
-222481
-222437
-222383
-222334
-222296
-222267
-222204
-221880
-221952
-222254
-222319
-222306
-222296
-222287
-222283
-222277
-222267
-222256
-222248
-222247
-222249
-222240
-222231
-222220
-222198
-222168
-222137
-222118
-222112
-222116
-222115
-222108
-222093
-222079
-222065
-222054
-222046
-222033
-222013
-221996
-221985
-221975
-221962
-221954
-221949
-221949
-221947
-221937
-221920
-221904
-221880
-221838
-221826
-221810
-221861
-221879
-221883
-221883
-221882
-221881
-221881
-221880
-221878
-221876
-221873
-221871
-221868
-221866
-221861
-221854
-221849
-221845
-221852
-221862
-221850
-221837
-221830
-221832
-221852
-221846
-221831
-221799
-221818
-221825
-221827
-221827
-221826
-221822
-221817
-221813
-221809
-221805
-221802
-221798
-221798
-221799
-224208
-224213
-224209
-224202
-224212
-224233
-224305
-224382
-224434
-224337
-224193
-224115
-224145
-224441
-224414
-224192
-224098
-224113
-224202
-224269
-224197
-224084
-224051
-224040
-224025
-224010
-223997
-223979
-223955
-223935
-223926
-223924
-223921
-223910
-223889
-223853
-223814
-223781
-223746
-223658
-223610
-223673
-223830
-223862
-223835
-223815
-223792
-223760
-223719
-223685
-223671
-223670
-223665
-223643
-223613
-223583
-223573
-223559
-223532
-223502
-223441
-223361
-223304
-223296
-223307
-223295
-223273
-223264
-223261
-223252
-223230
-223197
-223164
-223111
-223033
-222947
-222871
-222808
-222758
-222722
-222696
-222680
-222758
-222667
-222668
-222661
-222648
-222633
-222619
-222607
-222594
-222580
-222560
-222530
-222494
-222461
-222438
-222421
-222411
-222409
-222404
-222396
-222382
-222363
-222336
-222298
-222256
-222221
-222196
-222173
-222042
-221539
-221574
-221883
-222221
-222185
-222154
-222140
-222135
-222129
-222117
-222105
-222097
-222103
-222110
-222091
-222077
-222065
-222045
-222019
-221996
-221982
-221982
-221991
-221975
-221978
-221959
-221939
-221919
-221900
-221887
-221877
-221865
-221852
-221840
-221829
-221819
-221811
-221804
-221798
-221793
-221784
-221774
-221764
-221738
-221664
-221632
-221396
-221689
-221743
-221747
-221745
-221742
-221740
-221739
-221739
-221739
-221738
-221734
-221730
-221725
-221719
-221711
-221703
-221697
-221695
-221709
-221715
-221700
-221693
-221691
-221688
-221686
-221686
-221682
-221660
-221655
-221669
-221677
-221678
-221676
-221673
-221668
-221662
-221657
-221653
-221648
-221640
-221643
-221650
-224010
-223987
-223979
-223983
-223992
-224048
-224240
-224391
-224438
-224411
-224364
-224203
-223839
-224084
-223975
-223902
-223907
-223923
-223998
-224173
-224093
-223876
-223800
-223821
-223825
-223820
-223805
-223780
-223750
-223730
-223721
-223725
-223722
-223709
-223685
-223653
-223624
-223610
-223529
-223147
-223131
-223268
-223683
-223728
-223673
-223666
-223658
-223608
-223557
-223517
-223494
-223484
-223474
-223453
-223428
-223399
-223375
-223356
-223333
-223292
-223223
-223146
-223114
-223147
-223180
-223152
-223105
-223089
-223074
-223047
-223018
-222985
-222936
-222862
-222780
-222714
-222666
-222626
-222589
-222556
-222530
-222513
-222508
-222495
-222486
-222473
-222456
-222439
-222423
-222408
-222395
-222382
-222363
-222335
-222301
-222270
-222248
-222229
-222221
-222219
-222213
-222202
-222187
-222166
-222140
-222110
-222082
-222067
-222078
-221856
-221447
-221378
-221447
-221953
-222160
-222025
-221976
-221956
-221948
-221942
-221928
-221913
-221906
-221924
-221946
-221911
-221884
-221871
-221854
-221830
-221810
-221801
-221829
-221832
-221725
-221825
-221797
-221763
-221732
-221705
-221685
-221679
-221678
-221671
-221657
-221643
-221634
-221626
-221619
-221613
-221607
-221603
-221604
-221607
-221568
-221315
-221330
-220721
-221383
-221594
-221584
-221577
-221575
-221576
-221576
-221574
-221572
-221568
-221563
-221557
-221549
-221539
-221527
-221517
-221512
-221511
-221523
-221528
-221518
-221512
-221509
-221506
-221501
-221499
-221497
-221488
-221463
-221472
-221489
-221491
-221490
-221486
-221480
-221475
-221471
-221469
-221467
-221418
-221450
-221469
-223802
-223751
-223735
-223733
-223738
-223759
-223807
-223872
-223892
-223981
-224203
-224158
-223741
-223612
-223664
-223668
-223670
-223679
-223756
-224013
-224045
-223896
-223641
-223630
-223628
-223609
-223579
-223544
-223513
-223491
-223483
-223495
-223497
-223484
-223462
-223434
-223417
-223421
-223160
-222787
-222870
-222997
-223559
-223481
-223400
-223464
-223544
-223462
-223369
-223318
-223282
-223256
-223237
-223218
-223194
-223167
-223142
-223118
-223087
-223040
-222976
-222916
-222890
-222926
-222974
-222930
-222859
-222837
-222821
-222789
-222743
-222686
-222620
-222549
-222488
-222447
-222425
-222403
-222377
-222351
-222330
-222317
-222309
-222290
-222272
-222254
-222235
-222214
-222193
-222172
-222153
-222139
-222124
-222103
-222073
-222044
-222016
-221992
-221993
-221997
-221989
-221973
-221953
-221932
-221909
-221883
-221860
-221863
-221891
-221561
-221269
-221299
-221390
-222038
-222002
-221826
-221771
-221741
-221724
-221712
-221700
-221685
-221668
-221686
-221751
-221712
-221655
-221642
-221629
-221604
-221575
-221558
-221613
-221416
-221329
-221628
-221581
-221538
-221501
-221467
-221441
-221441
-221452
-221450
-221437
-221424
-221412
-221404
-221397
-221393
-221391
-221395
-221405
-221437
-221217
-220704
-221054
-220477
-221158
-221438
-221392
-221376
-221373
-221373
-221370
-221365
-221359
-221353
-221346
-221340
-221334
-221324
-221312
-221300
-221294
-221292
-221298
-221306
-221303
-221295
-221289
-221285
-221282
-221278
-221275
-221269
-221243
-221235
-221258
-221269
-221267
-221263
-221258
-221254
-221254
-221261
-221237
-221065
-221194
-221273
-223666
-223511
-223493
-223489
-223497
-223483
-223471
-223439
-223417
-223451
-223671
-223874
-223569
-223406
-223409
-223390
-223370
-223374
-223471
-223755
-223802
-223497
-223381
-223369
-223351
-223321
-223283
-223250
-223229
-223216
-223208
-223224
-223231
-223220
-223200
-223173
-223160
-223192
-223180
-222808
-223136
-223440
-223504
-223104
-222972
-223054
-223392
-223343
-223161
-223084
-223039
-223002
-222970
-222942
-222915
-222890
-222864
-222834
-222796
-222749
-222701
-222670
-222665
-222670
-222660
-222614
-222578
-222555
-222523
-222469
-222399
-222334
-222281
-222240
-222204
-222178
-222160
-222147
-222117
-222098
-222082
-222077
-222068
-222044
-222023
-222003
-221982
-221960
-221934
-221907
-221884
-221866
-221850
-221833
-221808
-221778
-221742
-221712
-221720
-221737
-221733
-221715
-221692
-221670
-221650
-221627
-221603
-221590
-221642
-221714
-221249
-221372
-221779
-221955
-221540
-221560
-221528
-221500
-221479
-221460
-221441
-221422
-221404
-221416
-221501
-221533
-221440
-221380
-221364
-221342
-221309
-221290
-221457
-221417
-221225
-221329
-221278
-221250
-221222
-221182
-221140
-221151
-221187
-221192
-221182
-221166
-221151
-221142
-221136
-221134
-221135
-221148
-221168
-221224
-221294
-220425
-220902
-220460
-221137
-221265
-221184
-221155
-221138
-221126
-221117
-221110
-221104
-221097
-221091
-221086
-221080
-221073
-221063
-221053
-221047
-221044
-221047
-221054
-221051
-221041
-221033
-221027
-221023
-221019
-221016
-221012
-220997
-220966
-220969
-221020
-221006
-221003
-221001
-220999
-221007
-221026
-221075
-220810
-220857
-221057
-223513
-223226
-223197
-223186
-223197
-223197
-223205
-223146
-223140
-223168
-223275
-223515
-223430
-223247
-223112
-223039
-222972
-222976
-223067
-223465
-223449
-223167
-223057
-223028
-223021
-222993
-222950
-222917
-222908
-222904
-222914
-222938
-222937
-222917
-222890
-222860
-222847
-222874
-222887
-222687
-223380
-223447
-223180
-222684
-222573
-222663
-223175
-223244
-223037
-222863
-222772
-222709
-222664
-222631
-222606
-222583
-222557
-222525
-222481
-222436
-222410
-222418
-222419
-222399
-222352
-222301
-222260
-222220
-222172
-222111
-222044
-221998
-221971
-221953
-221936
-221916
-221891
-221853
-221809
-221779
-221759
-221764
-221766
-221747
-221733
-221713
-221697
-221677
-221649
-221617
-221592
-221569
-221548
-221530
-221507
-221479
-221443
-221402
-221389
-221420
-221434
-221424
-221403
-221379
-221357
-221333
-221307
-221286
-221282
-221579
-220972
-221747
-221746
-221430
-221045
-221210
-221221
-221211
-221197
-221180
-221157
-221132
-221112
-221097
-221144
-221277
-221233
-221103
-221066
-221049
-221026
-221019
-221264
-221421
-221052
-220968
-220958
-220940
-220920
-220818
-220686
-220731
-220896
-220908
-220896
-220875
-220855
-220833
-220813
-220810
-220821
-220860
-220889
-220935
-221134
-220221
-220778
-220486
-220848
-221045
-220931
-220897
-220874
-220858
-220846
-220836
-220825
-220814
-220805
-220798
-220791
-220783
-220775
-220767
-220762
-220761
-220764
-220768
-220760
-220746
-220737
-220732
-220727
-220723
-220720
-220718
-220712
-220677
-220638
-220750
-220703
-220701
-220699
-220701
-220716
-220734
-220746
-220495
-220537
-220838
-223238
-222867
-222822
-222832
-222860
-222915
-222923
-222851
-222823
-222831
-222892
-223082
-223327
-223168
-222738
-222408
-222199
-222214
-222485
-223038
-223229
-223017
-222733
-222643
-222722
-222700
-222570
-222399
-222448
-222547
-222611
-222634
-222613
-222581
-222546
-222516
-222500
-222504
-222388
-222149
-223410
-223453
-222685
-222339
-222241
-222472
-223018
-223147
-222882
-222629
-222504
-222411
-222336
-222295
-222276
-222261
-222244
-222214
-222176
-222130
-222098
-222092
-222086
-222066
-222019
-221964
-221911
-221864
-221821
-221778
-221729
-221686
-221665
-221646
-221612
-221578
-221551
-221529
-221487
-221440
-221416
-221434
-221434
-221416
-221381
-221319
-221332
-221349
-221334
-221298
-221262
-221235
-221210
-221188
-221166
-221141
-221115
-221079
-221042
-221059
-221085
-221092
-221080
-221055
-221025
-220993
-220963
-220939
-220893
-220689
-220577
-221766
-221754
-220992
-220691
-220828
-220869
-220871
-220864
-220851
-220831
-220805
-220781
-220764
-220769
-220904
-220994
-220813
-220738
-220720
-220703
-220700
-220828
-220971
-220690
-220669
-220654
-220655
-220643
-220346
-220042
-220060
-220551
-220601
-220578
-220551
-220527
-220500
-220467
-220433
-220353
-220531
-220578
-220616
-220511
-219959
-220558
-220489
-220766
-220657
-220596
-220576
-220563
-220555
-220549
-220539
-220525
-220508
-220490
-220476
-220464
-220452
-220441
-220433
-220435
-220442
-220442
-220435
-220422
-220411
-220404
-220400
-220395
-220390
-220386
-220383
-220381
-220362
-220331
-220420
-220374
-220372
-220368
-220365
-220376
-220403
-220380
-220020
-220232
-220519
-222766
-222512
-222467
-222496
-222534
-222620
-222586
-222426
-222333
-222327
-222337
-222478
-223132
-223013
-222153
-221716
-221474
-221660
-222137
-222640
-222900
-222845
-222663
-222510
-222520
-222132
-221690
-221502
-221710
-222086
-222310
-222321
-222265
-222216
-222174
-222136
-222113
-222103
-221933
-221814
-223078
-223247
-222273
-222029
-221967
-222255
-222796
-222956
-222607
-222262
-222123
-222042
-221992
-221999
-222004
-222012
-221984
-221915
-221844
-221782
-221738
-221708
-221705
-221696
-221664
-221614
-221571
-221542
-221509
-221456
-221390
-221334
-221297
-221267
-221225
-221185
-221160
-221151
-221129
-221092
-221075
-221065
-221052
-221055
-221036
-220945
-220937
-220960
-220954
-220925
-220887
-220853
-220818
-220791
-220769
-220747
-220724
-220702
-220677
-220686
-220717
-220725
-220713
-220685
-220646
-220607
-220577
-220551
-220460
-220148
-220357
-221697
-221740
-220593
-220307
-220431
-220490
-220501
-220494
-220476
-220452
-220427
-220408
-220396
-220405
-220518
-220694
-220512
-220387
-220354
-220336
-220334
-220381
-220442
-220372
-220347
-220324
-220359
-220406
-220110
-219556
-219665
-220321
-220256
-220218
-220187
-220160
-220146
-220134
-220052
-219674
-220005
-220239
-220276
-219715
-219887
-220333
-220437
-220664
-220158
-220198
-220202
-220203
-220205
-220203
-220195
-220179
-220159
-220138
-220120
-220103
-220088
-220074
-220064
-220072
-220080
-220070
-220056
-220047
-220040
-220035
-220031
-220028
-220023
-220018
-220014
-220009
-219999
-219994
-220014
-220007
-220005
-220001
-219998
-220000
-220029
-220019
-219607
-219910
-220144
-222231
-222116
-222140
-222214
-222286
-222371
-222164
-221764
-221727
-221741
-221776
-221967
-222704
-223093
-222713
-222209
-221383
-221460
-221818
-222014
-222184
-222504
-222149
-221934
-221951
-221543
-221350
-221262
-221465
-221861
-222056
-222023
-221899
-221807
-221758
-221721
-221691
-221663
-221539
-221378
-222055
-222558
-221904
-221714
-221633
-221645
-222061
-222380
-222026
-221723
-221585
-221509
-221499
-221699
-221844
-221819
-221671
-221542
-221452
-221389
-221336
-221322
-221339
-221365
-221350
-221305
-221254
-221196
-221123
-221045
-220973
-220916
-220881
-220854
-220825
-220785
-220756
-220744
-220735
-220704
-220683
-220661
-220634
-220612
-220616
-220597
-220558
-220554
-220541
-220506
-220467
-220435
-220402
-220360
-220312
-220256
-220220
-220250
-220269
-220294
-220312
-220311
-220294
-220263
-220223
-220181
-220142
-220107
-220021
-219860
-220369
-221292
-221506
-220280
-219931
-220043
-220098
-220095
-220081
-220056
-220029
-220014
-220009
-220015
-220038
-220135
-220280
-220174
-220022
-219953
-219933
-219927
-219961
-220031
-220066
-220007
-219887
-219913
-220015
-219810
-219245
-219430
-219917
-219819
-219806
-219781
-219752
-219736
-219723
-219672
-219135
-219335
-219679
-219669
-219731
-220242
-220387
-219915
-219908
-219714
-219753
-219774
-219813
-219824
-219810
-219797
-219783
-219765
-219748
-219734
-219719
-219701
-219683
-219668
-219667
-219667
-219654
-219643
-219637
-219634
-219629
-219626
-219623
-219619
-219614
-219608
-219599
-219592
-219596
-219603
-219602
-219600
-219596
-219593
-219592
-219606
-219643
-219413
-219631
-219679
-221634
-221674
-221836
-222068
-222359
-221951
-221220
-220849
-220913
-221056
-221259
-221714
-222558
-223100
-222861
-222276
-221366
-221282
-221502
-221530
-221498
-221510
-221385
-221580
-221817
-221836
-221870
-221287
-221227
-221544
-221759
-221736
-221511
-221330
-221285
-221267
-221249
-221216
-221135
-221018
-221303
-221716
-221536
-221352
-221265
-221239
-221331
-221463
-221280
-221107
-220985
-220897
-220955
-221342
-221639
-221485
-221229
-221089
-221015
-220968
-220945
-220997
-221088
-221110
-221026
-220893
-220786
-220696
-220615
-220545
-220494
-220483
-220477
-220406
-220376
-220354
-220327
-220307
-220287
-220259
-220239
-220215
-220186
-220156
-220135
-220134
-220136
-220128
-220101
-220062
-220029
-220005
-219977
-219936
-219856
-219713
-219580
-219762
-219855
-219873
-219860
-219848
-219830
-219806
-219773
-219731
-219693
-219668
-219640
-219570
-219593
-220068
-220436
-219813
-219577
-219635
-219654
-219646
-219624
-219595
-219577
-219577
-219592
-219607
-219614
-219650
-219766
-219801
-219666
-219546
-219508
-219500
-219546
-219660
-219739
-219645
-219341
-219297
-219410
-219400
-219022
-219038
-219157
-219222
-219331
-219324
-219291
-219247
-219154
-219057
-218775
-218988
-219274
-219268
-220052
-220328
-220396
-219716
-219299
-219306
-219321
-219339
-219369
-219361
-219350
-219350
-219343
-219332
-219325
-219320
-219312
-219292
-219266
-219242
-219227
-219216
-219204
-219195
-219190
-219189
-219181
-219180
-219181
-219177
-219168
-219151
-219140
-219144
-219155
-219161
-219161
-219159
-219155
-219151
-219147
-219142
-219133
-219066
-219137
-219148
-221144
-221245
-221555
-222265
-222523
-222005
-221097
-220401
-220492
-220703
-220952
-221372
-222152
-222774
-222113
-220969
-220722
-220947
-221223
-221254
-221221
-220955
-221398
-221881
-222067
-222257
-221665
-220801
-220858
-221079
-221411
-221461
-220983
-220664
-220664
-220736
-220761
-220751
-220726
-220710
-220902
-221127
-221104
-220946
-220844
-220789
-220766
-220754
-220668
-220552
-220459
-220420
-220613
-221062
-221278
-221036
-220746
-220620
-220585
-220562
-220558
-220600
-220681
-220696
-220551
-220347
-220214
-220124
-220044
-219974
-219919
-220068
-220065
-219681
-219794
-219875
-219858
-219833
-219805
-219780
-219757
-219728
-219694
-219659
-219616
-219635
-219646
-219639
-219619
-219593
-219569
-219542
-219509
-219472
-219426
-219251
-218954
-219278
-219415
-219391
-219335
-219303
-219302
-219305
-219301
-219271
-219236
-219210
-219183
-219155
-219150
-219193
-219241
-219181
-219162
-219174
-219169
-219151
-219129
-219105
-219093
-219101
-219129
-219150
-219149
-219164
-219270
-219411
-219313
-219126
-219064
-219047
-219077
-219190
-219298
-219326
-219059
-218864
-218851
-218893
-218748
-218507
-218310
-218539
-218761
-218766
-218720
-218572
-218289
-218348
-218441
-218724
-218860
-218804
-218950
-219460
-219491
-218892
-218857
-218873
-218876
-218874
-218868
-218845
-218854
-218872
-218870
-218866
-218866
-218873
-218871
-218850
-218819
-218787
-218760
-218741
-218727
-218718
-218714
-218709
-218697
-218686
-218694
-218689
-218678
-218665
-218661
-218668
-218677
-218681
-218681
-218678
-218675
-218670
-218662
-218650
-218627
-218609
-218633
-218646
-220644
-220790
-221314
-222186
-222520
-222192
-221201
-220166
-220252
-220420
-220601
-220905
-221351
-221745
-220780
-220287
-220296
-220570
-221165
-221326
-220745
-220227
-221806
-222309
-222426
-222060
-220864
-220359
-220396
-220484
-220941
-221009
-220377
-220097
-219962
-220040
-220289
-220353
-220375
-220408
-220500
-220569
-220530
-220397
-220295
-220241
-220231
-220239
-220215
-220144
-220067
-220016
-220113
-220433
-220604
-220419
-220221
-220172
-220215
-220232
-220187
-220131
-220112
-220091
-219956
-219755
-219611
-219507
-219426
-219324
-219252
-219641
-219323
-218619
-218912
-219370
-219372
-219331
-219297
-219265
-219238
-219212
-219187
-219124
-218910
-219118
-219143
-219123
-219107
-219091
-219070
-219037
-218992
-218950
-218900
-218653
-218377
-218741
-218903
-218851
-218742
-218688
-218723
-218772
-218788
-218773
-218740
-218701
-218656
-218642
-218676
-218683
-218674
-218666
-218665
-218658
-218636
-218616
-218594
-218582
-218572
-218577
-218602
-218650
-218707
-218768
-218877
-218940
-218816
-218657
-218582
-218543
-218516
-218505
-218538
-218621
-218607
-218519
-218443
-218428
-218423
-217893
-217563
-217913
-218134
-217860
-217587
-217253
-216983
-217621
-218145
-218338
-218379
-218361
-218347
-218417
-218471
-218378
-218366
-218370
-218370
-218367
-218348
-218289
-218310
-218369
-218376
-218373
-218373
-218380
-218379
-218357
-218327
-218298
-218268
-218241
-218223
-218212
-218205
-218201
-218188
-218173
-218174
-218156
-218149
-218150
-218154
-218158
-218162
-218165
-218167
-218165
-218160
-218152
-218141
-218122
-218093
-218082
-218098
-218117
-220360
-220501
-220784
-221501
-221979
-220858
-219505
-219602
-219846
-220020
-220336
-220670
-220777
-220608
-220075
-219790
-219876
-220363
-221111
-221301
-220573
-219619
-221178
-221540
-221149
-220244
-219827
-219855
-219823
-220030
-220812
-221100
-220764
-220131
-219645
-219365
-219788
-219951
-219988
-219992
-219968
-219937
-219874
-219793
-219734
-219702
-219748
-219822
-219805
-219688
-219585
-219520
-219485
-219533
-219676
-219692
-219621
-219673
-219787
-219804
-219699
-219579
-219514
-219487
-219388
-219163
-218967
-218828
-218676
-218602
-218800
-219011
-218548
-218238
-218174
-218812
-218892
-218841
-218769
-218728
-218710
-218746
-218732
-218277
-217826
-218541
-218674
-218591
-218564
-218543
-218523
-218484
-218435
-218394
-218308
-217969
-217855
-218228
-218337
-218294
-218200
-218169
-218234
-218278
-218264
-218220
-218171
-218103
-217991
-218044
-218207
-218142
-218128
-218121
-218113
-218097
-218076
-218052
-218047
-218033
-218033
-218029
-218043
-218176
-218329
-218305
-218294
-218277
-218161
-218090
-218050
-218010
-217975
-217946
-217935
-217955
-218003
-218035
-217999
-217969
-217967
-217203
-216957
-217351
-217512
-216811
-216284
-215899
-215781
-216802
-217721
-217849
-217854
-217841
-217830
-217841
-217867
-217838
-217813
-217812
-217817
-217807
-217773
-217675
-217747
-217864
-217861
-217842
-217832
-217835
-217839
-217817
-217786
-217760
-217734
-217709
-217689
-217676
-217667
-217659
-217651
-217643
-217634
-217618
-217607
-217603
-217603
-217607
-217614
-217621
-217620
-217616
-217609
-217600
-217589
-217572
-217545
-217518
-217530
-217550
-220380
-219681
-219394
-219351
-219340
-218517
-218753
-219125
-219300
-219438
-219808
-220149
-219946
-219492
-219235
-219266
-219470
-220026
-220881
-221057
-219195
-218302
-218787
-219110
-219126
-219101
-219157
-219189
-219121
-219690
-221026
-221308
-221228
-220961
-220113
-218950
-219183
-219340
-219317
-219268
-219230
-219234
-219256
-219276
-219242
-219192
-219166
-219161
-219106
-219038
-218978
-218936
-218917
-218934
-218988
-219012
-219005
-219064
-219122
-219085
-219005
-218934
-218932
-218993
-218942
-218704
-218505
-218346
-218241
-218459
-218996
-219181
-219022
-218721
-217754
-218133
-218298
-218290
-218192
-218156
-218200
-218307
-218299
-217630
-217200
-218190
-218160
-218010
-217977
-217955
-217927
-217887
-217847
-217822
-217724
-217252
-217317
-217708
-217794
-217745
-217693
-217681
-217694
-217685
-217656
-217616
-217567
-217453
-217111
-217255
-217761
-217557
-217524
-217538
-217531
-217513
-217492
-217486
-217483
-217479
-217471
-217452
-217466
-217726
-217998
-217823
-217581
-217539
-217537
-217550
-217515
-217458
-217421
-217390
-217368
-217365
-217381
-217407
-217425
-217433
-217741
-217142
-216698
-216844
-217240
-216679
-216065
-215483
-215303
-215947
-217147
-217336
-217308
-217290
-217282
-217288
-217300
-217284
-217263
-217250
-217244
-217237
-217215
-217114
-217221
-217321
-217285
-217256
-217244
-217246
-217254
-217234
-217200
-217175
-217151
-217130
-217115
-217107
-217101
-217091
-217079
-217068
-217061
-217050
-217029
-217013
-217018
-217032
-217039
-217038
-217032
-217026
-217019
-217012
-217003
-216988
-216954
-216938
-216914
-216958
-220912
-220374
-219519
-218664
-217944
-217921
-218346
-218587
-218685
-218797
-219119
-219404
-218871
-218538
-218539
-218572
-218675
-219200
-220497
-220091
-217707
-217283
-217922
-218255
-218362
-218421
-218469
-218497
-218479
-218896
-220581
-221324
-221248
-221008
-220051
-218706
-218623
-218657
-218559
-218497
-218471
-218501
-218637
-218785
-218789
-218617
-218462
-218382
-218345
-218334
-218331
-218351
-218399
-218435
-218427
-218396
-218357
-218329
-218296
-218242
-218204
-218186
-218324
-218572
-218572
-218239
-218010
-217834
-217686
-217532
-217666
-218943
-219475
-219007
-217348
-217248
-217586
-217672
-217592
-217506
-217574
-217805
-217896
-217202
-216761
-217603
-217505
-217382
-217341
-217302
-217264
-217234
-217215
-217208
-217051
-216491
-216714
-217132
-217189
-217137
-217098
-217081
-217070
-217045
-217011
-216972
-216938
-216793
-216376
-216588
-217032
-216698
-216742
-216878
-216905
-216904
-216902
-216891
-216866
-216841
-216820
-216803
-216832
-217137
-217533
-217204
-216946
-216913
-216942
-217038
-216941
-216739
-216783
-216781
-216771
-216761
-216758
-216760
-216766
-216796
-217293
-217396
-216622
-216288
-216690
-216428
-216130
-215315
-215228
-215754
-216365
-216812
-216685
-216666
-216659
-216679
-216713
-216705
-216672
-216650
-216639
-216631
-216605
-216539
-216640
-216696
-216650
-216623
-216612
-216622
-216640
-216619
-216584
-216558
-216533
-216511
-216496
-216487
-216487
-216485
-216475
-216460
-216446
-216431
-216408
-216385
-216392
-216408
-216413
-216410
-216403
-216398
-216395
-216390
-216380
-216358
-216277
-216310
-216321
-216331
-221460
-221241
-220960
-220254
-218508
-217719
-217890
-218001
-218044
-218190
-218510
-218912
-218171
-217879
-217819
-217821
-217862
-218450
-220131
-219525
-217602
-216849
-216946
-217363
-217613
-217724
-217779
-217810
-217838
-218099
-219331
-220611
-220433
-219684
-218302
-217898
-218024
-217990
-217870
-217796
-217770
-217785
-217958
-218230
-218253
-217968
-217773
-217692
-217657
-217644
-217681
-217794
-217884
-217854
-217774
-217709
-217663
-217618
-217552
-217493
-217436
-217428
-217803