/*--------------------------------*- C++ -*----------------------------------*\
  =========                 |
  \\      /  F ield         | OpenFOAM: The Open Source CFD Toolbox
   \\    /   O peration     | Website:  https://openfoam.org
    \\  /    A nd           | Version:  8
     \\/     M anipulation  |
\*---------------------------------------------------------------------------*/
FoamFile
{
    version     2.0;
    format      ascii;
    class       volScalarField;
    location    "1000";
    object      rho;
}
// * * * * * * * * * * * * * * * * * * * * * * * * * * * * * * * * * * * * * //

dimensions      [1 -3 0 0 0 0 0];

internalField   nonuniform List<scalar> 
20000
(
1003.43
1003.38
1003.33
1003.45
1003.66
1003.8
1003.83
1003.83
1003.81
1003.79
1003.75
1003.78
1004.9
1003.91
1002.32
1012.11
1020
1017.51
1012.35
1003.03
1003.33
1003.79
1003.83
1003.82
1003.81
1003.79
1003.76
1003.72
1003.7
1003.76
1003.78
1003.77
1003.77
1003.79
1003.83
1003.86
1003.88
1003.88
1003.87
1003.84
1003.79
1003.76
1003.78
1003.83
1003.85
1003.86
1003.83
1003.81
1003.76
1003.76
1003.79
1003.84
1003.92
1004.08
1004.37
1004.54
1002.96
1002.98
1003.82
1003.86
1003.85
1003.85
1003.83
1003.81
1003.84
1003.98
1003.55
1003.45
1003.76
1003.57
1003.67
1003.85
1003.83
1003.81
1003.83
1003.84
1003.84
1003.85
1003.8
1003.69
1006.38
1011.2
1010.57
1011.72
1004.75
1003.34
1003.95
1003.96
1003.93
1003.91
1003.94
1003.99
1003.99
1003.9
1003.86
1003.85
1003.83
1003.84
1003.96
1003.86
1003.77
1003.81
1003.81
1003.79
1003.74
1003.7
1003.74
1003.82
1003.92
1004.08
1004.18
1004.09
1003.95
1003.89
1003.89
1003.88
1003.84
1003.77
1003.77
1003.8
1003.82
1003.83
1003.83
1003.82
1003.82
1003.82
1003.83
1003.84
1003.85
1003.85
1003.86
1003.87
1003.86
1003.83
1003.76
1003.55
1003.36
1003.65
1003.93
1004.01
1003.96
1003.89
1003.87
1003.87
1003.92
1004.05
1004.15
1004.03
1003.94
1003.88
1003.84
1003.8
1003.67
1003.41
1003.4
1004.56
1005.34
1005.07
1004.36
1003.87
1003.74
1003.68
1003.74
1003.8
1003.83
1003.84
1003.85
1003.85
1003.86
1003.86
1003.86
1003.85
1003.84
1003.84
1003.85
1003.86
1003.86
1003.5
1003.71
1004.27
1004.15
1004.11
1003.66
1002.92
1005.55
1010.31
1004.6
1003.77
1003.88
1003.88
1003.89
1003.89
1003.87
1003.86
1003.84
1003.83
1003.83
1003.86
1003.89
1003.89
1011.08
1010.66
1010.28
1010.38
1010.83
1011.29
1011.43
1011.45
1011.39
1011.33
1011.2
1011.45
1020.21
1018.01
1006.02
1014.16
1022.03
1018.04
1008.61
1006.3
1010.31
1011.33
1011.47
1011.49
1011.51
1011.51
1011.5
1011.42
1011.36
1011.41
1011.34
1011.28
1011.32
1011.4
1011.49
1011.55
1011.58
1011.59
1011.6
1011.59
1011.48
1011.28
1011.17
1011.32
1011.39
1011.41
1011.4
1011.44
1011.45
1011.47
1011.5
1011.57
1011.72
1012.05
1012.39
1011.99
1009.39
1009.44
1011.38
1011.56
1011.53
1011.51
1011.49
1011.48
1011.54
1011.72
1011.16
1011.09
1011.44
1010.7
1010.59
1011.52
1011.52
1011.48
1011.49
1011.51
1011.52
1011.52
1011.5
1011.21
1010.5
1014.44
1009.37
1014.16
1008.31
1010.91
1011.72
1011.76
1011.72
1011.68
1011.68
1011.72
1011.75
1011.68
1011.62
1011.57
1011.53
1011.58
1011.84
1011.55
1011.34
1011.41
1011.39
1011.33
1011.3
1011.33
1011.4
1011.48
1011.58
1011.8
1012.3
1012.91
1012.04
1011.52
1011.46
1011.46
1011.39
1011.28
1011.31
1011.42
1011.48
1011.5
1011.49
1011.46
1011.43
1011.45
1011.49
1011.51
1011.52
1011.53
1011.53
1011.53
1011.49
1011.33
1011.04
1010.8
1010.74
1011.25
1011.68
1011.77
1011.61
1011.45
1011.4
1011.41
1011.53
1012.03
1012.56
1012.32
1011.94
1011.66
1011.48
1011.29
1010.96
1010.52
1010.67
1013.12
1014.35
1013.45
1012.16
1011.57
1011.45
1011.31
1011.36
1011.38
1011.46
1011.49
1011.52
1011.54
1011.55
1011.56
1011.55
1011.52
1011.51
1011.52
1011.54
1011.57
1011.49
1010.65
1011.06
1012.47
1012.62
1012.59
1010.55
1009.33
1008.14
1014.02
1009.12
1011.48
1011.58
1011.57
1011.58
1011.58
1011.56
1011.55
1011.54
1011.53
1011.54
1011.59
1011.61
1011.63
1018.35
1017.58
1017.24
1017.12
1017.93
1018.06
1018.24
1018.46
1018.73
1018.72
1018.35
1019.5
1032.84
1028.65
1016.65
1016.19
1020.47
1019.89
1009.98
1013.09
1017.54
1018.85
1019.09
1019.15
1019.19
1019.21
1019.22
1019.18
1019.13
1019.06
1018.96
1018.87
1018.91
1019.03
1019.14
1019.18
1019.2
1019.23
1019.31
1019.43
1019.46
1019.05
1018.48
1018.51
1018.74
1018.9
1019.01
1019.1
1019.15
1019.19
1019.19
1019.25
1019.32
1019.57
1019.85
1019.65
1017.23
1017.04
1018.81
1019.14
1019.13
1019.14
1019.12
1019.1
1019.07
1019.09
1019.09
1019.16
1019.22
1017.91
1017.5
1019.01
1019.2
1019.18
1019.17
1019.18
1019.18
1019.17
1019.17
1019.2
1019.66
1020.06
1008.23
1022.01
1018.8
1019.23
1019.37
1019.42
1019.42
1019.39
1019.33
1019.29
1019.29
1019.32
1019.33
1019.31
1019.31
1019.43
1019.65
1019.24
1018.97
1018.98
1018.97
1018.97
1019.04
1019.13
1019.16
1019.17
1019.14
1019.12
1020.12
1025.59
1021.83
1018.59
1018.67
1018.87
1018.89
1018.82
1018.87
1019.03
1019.14
1019.17
1019.16
1019.09
1019
1019.08
1019.16
1019.18
1019.18
1019.17
1019.16
1019.13
1019
1018.59
1018.24
1018.37
1018.79
1019.18
1019.37
1019.33
1019.08
1018.92
1018.88
1018.85
1018.83
1019.37
1020.21
1020.24
1019.81
1019.25
1018.81
1018.65
1018.61
1018.62
1019.58
1021.93
1022.38
1021.2
1020
1019.51
1019.34
1019.22
1019.15
1019.12
1019.12
1019.15
1019.17
1019.19
1019.2
1019.19
1019.16
1019.13
1019.14
1019.17
1019.2
1019.24
1019.02
1018.08
1018.5
1019.98
1020.49
1020.19
1017.26
1017.24
1017.79
1021.95
1019.28
1019.31
1019.24
1019.22
1019.21
1019.21
1019.2
1019.21
1019.21
1019.22
1019.26
1019.3
1019.33
1019.32
1024.51
1023.78
1023.44
1024.43
1024.68
1024.41
1023.43
1024.27
1025.56
1025.17
1024.19
1029.37
1034.21
1017.73
1015.63
1015.38
1019.85
1027.53
1018.36
1020.76
1024.46
1026.38
1026.76
1026.85
1026.93
1026.99
1026.96
1026.88
1026.81
1026.77
1026.67
1026.56
1026.6
1026.72
1026.79
1026.8
1026.8
1026.83
1026.96
1027.35
1027.9
1027.47
1025.63
1025.1
1025.68
1026.24
1026.57
1026.74
1026.83
1026.89
1027.02
1026.86
1026.68
1026.74
1027.11
1027.02
1025.81
1025.25
1026.45
1026.52
1026.58
1026.65
1026.69
1026.66
1026.56
1026.58
1026.68
1026.71
1026.55
1025.41
1024.94
1026.42
1026.83
1026.82
1026.82
1026.82
1026.82
1026.82
1026.81
1026.86
1027.28
1026.19
1013.29
1026.85
1027.18
1026.99
1027.01
1027.05
1027.08
1027.08
1027.02
1026.95
1026.91
1026.91
1026.93
1026.97
1027.05
1027.23
1027.35
1026.97
1026.68
1026.61
1026.61
1026.7
1026.78
1026.82
1026.82
1026.81
1026.71
1026.43
1028.3
1045.79
1041.99
1026.72
1025.11
1026.2
1026.49
1026.56
1026.49
1026.54
1026.74
1026.85
1026.85
1026.67
1026.45
1026.72
1026.86
1026.86
1026.84
1026.83
1026.8
1026.74
1026.49
1025.85
1025.61
1025.87
1026.41
1026.73
1026.91
1026.98
1026.86
1026.71
1026.6
1026.44
1026.3
1026.59
1027.19
1027.4
1027.31
1026.84
1026.44
1026.41
1026.6
1026.84
1027.79
1029.91
1030.25
1030.45
1027.87
1027.21
1027
1026.9
1026.82
1026.8
1026.77
1026.78
1026.78
1026.8
1026.8
1026.79
1026.76
1026.74
1026.75
1026.8
1026.87
1026.92
1026.47
1025.75
1026.34
1027.16
1027.46
1027.15
1025.6
1025.82
1026.73
1028.67
1027.43
1027.01
1026.89
1026.86
1026.85
1026.85
1026.85
1026.85
1026.86
1026.87
1026.91
1026.99
1026.99
1026.98
1032.32
1032.01
1032.14
1032.48
1032.09
1031.25
1028.31
1025.21
1023.05
1027.22
1033.27
1036.34
1034.52
1019.7
1020.07
1030.27
1035.21
1034.77
1029.97
1027.12
1030.21
1034.47
1035.21
1035.14
1035.24
1035.21
1034.95
1034.66
1034.52
1034.44
1034.34
1034.21
1034.23
1034.37
1034.42
1034.41
1034.37
1034.31
1034.48
1037.08
1039.56
1037.96
1032.34
1031.29
1032.44
1033.21
1033.83
1034.19
1034.5
1034.63
1034.4
1033.87
1033.6
1033.97
1034.39
1034.6
1034.02
1033.88
1034.32
1034.34
1034.4
1034.48
1034.48
1033.79
1032.89
1032.99
1033.49
1033.38
1032.96
1032.79
1033.2
1034.09
1034.38
1034.44
1034.44
1034.44
1034.44
1034.42
1034.41
1034.43
1034.59
1034.52
1030.04
1034.77
1034.66
1034.62
1034.66
1034.7
1034.72
1034.72
1034.68
1034.62
1034.57
1034.54
1034.55
1034.58
1034.69
1034.92
1034.98
1034.68
1034.42
1034.27
1034.26
1034.35
1034.43
1034.46
1034.46
1034.42
1034.16
1033.25
1037.43
1059.98
1059.21
1046.5
1031.75
1033.11
1034.04
1034.24
1034.12
1034.08
1034.33
1034.47
1034.48
1034.02
1033.63
1034.3
1034.59
1034.55
1034.51
1034.48
1034.45
1034.36
1033.94
1033.04
1033.32
1033.1
1033.62
1034.02
1034.41
1034.79
1034.88
1034.64
1034.35
1034.09
1034.01
1034.22
1034.47
1034.59
1034.63
1034.55
1034.46
1034.48
1034.5
1034.51
1035.09
1037.62
1038.79
1048.47
1036.28
1034.58
1034.45
1034.41
1034.4
1034.42
1034.42
1034.41
1034.41
1034.42
1034.42
1034.41
1034.39
1034.38
1034.4
1034.47
1034.59
1034.59
1033.9
1033.53
1034.17
1034.49
1034.54
1034.47
1034.24
1034.16
1034.38
1035.45
1035.59
1034.91
1034.54
1034.49
1034.48
1034.48
1034.48
1034.48
1034.49
1034.49
1034.52
1034.69
1034.67
1034.55
1040.48
1041.16
1041.34
1041.06
1040.57
1038.26
1030.83
1025.02
1023.2
1024.37
1026.39
1032.64
1045.89
1035.59
1038.99
1041.86
1041.98
1041.34
1038.21
1031.82
1034.79
1042.59
1045.07
1044.02
1043.43
1042.97
1042.58
1042.33
1042.18
1042.09
1042.05
1041.77
1041.75
1041.93
1042
1041.99
1041.84
1041.41
1043.34
1056.45
1057.46
1053.34
1039.2
1037.56
1039.4
1039.64
1039.88
1041.02
1041.69
1041.9
1041.84
1041.59
1041.5
1041.79
1041.95
1042.08
1042.04
1042
1042.09
1042.19
1042.25
1042.28
1041.7
1039.74
1038.18
1038.94
1040.34
1040.56
1040.68
1041.12
1041.58
1041.89
1042.02
1042.09
1042.09
1042.06
1042.04
1042.01
1042
1042.01
1042.04
1042
1041.51
1041.99
1042.08
1042.17
1042.27
1042.36
1042.44
1042.47
1042.4
1042.31
1042.22
1042.17
1042.17
1042.2
1042.35
1042.64
1042.64
1042.37
1042.12
1042
1041.94
1042
1042.05
1042.09
1042.07
1041.81
1040.71
1047.68
1061.7
1064.55
1062.77
1044.57
1036.03
1040.36
1041.54
1041.82
1041.76
1041.71
1041.94
1042.16
1042.1
1041.27
1040.43
1041.58
1042.25
1042.21
1042.14
1042.14
1042.15
1042.08
1040.88
1040.21
1043.74
1040.22
1040.86
1041.53
1042.1
1042.6
1042.77
1042.47
1042.05
1041.83
1041.88
1042.02
1042.09
1042.12
1042.14
1042.15
1042.15
1042.14
1042.06
1041.7
1042.42
1050.77
1050.35
1072.3
1048.77
1041.43
1041.76
1041.92
1041.98
1042.02
1042.03
1042.03
1042.03
1042.04
1042.04
1042.03
1042.01
1042.01
1042.05
1042.09
1042.14
1042.1
1041.56
1041.36
1041.74
1041.98
1042.05
1042.04
1042
1041.99
1042.03
1042.42
1043.28
1042.87
1042.2
1042.1
1042.1
1042.1
1042.1
1042.09
1042.08
1042.03
1041.92
1043.37
1042.37
1041.98
1047.8
1049.04
1049.22
1049.01
1048.6
1047.6
1045.53
1042.89
1041.97
1039.24
1032.59
1034.76
1048.31
1051.89
1049.91
1049.45
1048.97
1048.42
1045.91
1037.81
1036.88
1041.81
1050.05
1050.3
1049.96
1049.86
1049.8
1049.76
1049.78
1049.95
1049.97
1049.47
1049.26
1049.37
1049.45
1049.43
1049.11
1048.5
1056.3
1067.7
1065.55
1061.95
1044.44
1046.47
1048.69
1046.62
1044.38
1046.75
1048.88
1049.4
1049.53
1049.57
1049.6
1049.61
1049.62
1049.62
1049.62
1049.67
1049.73
1049.75
1049.71
1049.6
1049.1
1047.22
1045.33
1046.54
1048.62
1049.01
1049.04
1049.24
1049.43
1049.58
1049.63
1049.67
1049.71
1049.74
1049.61
1049.61
1049.61
1049.62
1049.58
1049.44
1049.2
1049.39
1049.56
1049.68
1049.79
1049.92
1050.06
1050.2
1050.25
1050.14
1050
1049.87
1049.83
1049.88
1050.2
1050.62
1050.38
1049.99
1049.8
1049.7
1049.69
1049.71
1049.74
1049.77
1049.71
1049.02
1047.85
1058.12
1067.12
1066.42
1064.11
1043.88
1043.83
1048.39
1049.25
1049.46
1049.52
1049.52
1049.57
1049.75
1050
1049.24
1047.2
1048.37
1049.95
1049.99
1049.79
1049.81
1050.09
1050.35
1048.6
1054.53
1056.96
1047.62
1048.78
1049.52
1049.94
1050.33
1050.57
1050.28
1049.77
1049.6
1049.65
1049.7
1049.72
1049.72
1049.73
1049.72
1049.71
1049.65
1049.41
1048.34
1055.01
1070.49
1059.86
1077.95
1056.94
1047.96
1049.15
1049.49
1049.57
1049.61
1049.65
1049.67
1049.68
1049.66
1049.65
1049.61
1049.6
1049.61
1049.64
1049.66
1049.66
1049.61
1049.38
1049.12
1049.25
1049.48
1049.6
1049.64
1049.64
1049.64
1049.66
1049.83
1050.58
1050.74
1049.95
1049.68
1049.7
1049.69
1049.69
1049.66
1049.54
1049.21
1049.87
1055.04
1051.05
1048.89
1051.99
1055.79
1055.93
1055.73
1055.29
1055.5
1055.5
1055.85
1056.09
1055.06
1049.26
1044.38
1053.26
1057.69
1057.18
1056.94
1056.65
1056.2
1053.72
1046.21
1044.95
1053.51
1057.01
1057.21
1057.23
1057.28
1057.31
1057.36
1057.46
1057.7
1057.84
1057.3
1056.97
1056.99
1057.01
1057.01
1056.73
1055.63
1056.07
1066.35
1057.6
1049.15
1046.84
1057.43
1060.81
1058.41
1049.52
1050.95
1055.45
1056.75
1057.04
1057.13
1057.18
1057.2
1057.21
1057.21
1057.24
1057.29
1057.33
1057.34
1057.26
1056.93
1056.13
1055.2
1054.87
1055.82
1056.6
1056.78
1056.81
1056.91
1057.06
1057.14
1057.17
1057.11
1057.15
1057.13
1057.08
1056.97
1057.25
1057.22
1057.16
1056.87
1056.72
1056.98
1057.14
1057.24
1057.32
1057.4
1057.53
1057.69
1057.82
1057.83
1057.77
1057.64
1057.55
1057.67
1058.17
1058.72
1058.31
1057.62
1057.41
1057.37
1057.37
1057.37
1057.36
1057.33
1057.3
1057.17
1055.66
1054.16
1067.2
1064.03
1052.96
1047.83
1058.33
1057.05
1057.12
1057.15
1057.16
1057.17
1057.22
1057.3
1057.52
1056.98
1054.56
1053.67
1056.16
1057.55
1057.46
1057.39
1057.74
1058.01
1053.43
1054.57
1059.74
1056.67
1057.75
1057.96
1057.92
1058.2
1058.74
1058.27
1057.43
1057.27
1057.28
1057.31
1057.32
1057.33
1057.34
1057.33
1057.27
1057.11
1056.7
1055.23
1053.57
1077.41
1064.68
1076.84
1058.56
1054.86
1056.7
1057.07
1057.15
1057.17
1057.19
1057.22
1057.23
1057.22
1057.2
1057.17
1057.16
1057.19
1057.23
1057.25
1057.24
1057.19
1057.01
1056.75
1056.77
1057
1057.16
1057.22
1057.24
1057.24
1057.24
1057.29
1057.66
1058.43
1058.3
1056.98
1057.3
1057.31
1057.27
1057.19
1056.86
1056.22
1054.83
1062.16
1060.84
1055.57
1056.09
1062.81
1063.34
1063.38
1062.89
1062.71
1062.29
1063.34
1063.19
1062.44
1060.06
1054.67
1057.25
1061.75
1064.22
1064.81
1065.54
1065.36
1063.59
1054.56
1055.23
1062.07
1064.6
1065
1064.71
1064.59
1064.69
1064.89
1065.11
1065.43
1065.33
1064.69
1064.53
1064.64
1064.72
1064.76
1064.61
1063.8
1063.55
1068.59
1051.73
1049.69
1055.65
1067.49
1070.03
1067.78
1055.57
1053.93
1058.65
1062.25
1063.69
1064.34
1064.59
1064.7
1064.74
1064.77
1064.8
1064.84
1064.96
1064.94
1064.61
1063.68
1063.04
1062.86
1063.34
1063.98
1064.33
1064.43
1064.38
1064.38
1064.56
1064.59
1064.49
1064.27
1064.02
1063.88
1063.95
1064.41
1065.03
1065.3
1065.38
1064.88
1064.53
1064.7
1064.76
1064.89
1064.93
1064.94
1065
1065.11
1065.16
1065.27
1065.37
1065.31
1065.22
1065.28
1065.74
1066.5
1066.61
1065.68
1065.13
1065.03
1065
1064.97
1064.91
1064.88
1064.87
1064.89
1064.87
1058
1073.23
1054.44
1054.11
1061.39
1070.34
1065.83
1065.03
1064.85
1064.79
1064.79
1064.8
1064.83
1064.89
1064.97
1063.64
1060.35
1061.48
1064.47
1064.95
1064.83
1064.9
1064.74
1058.6
1054.77
1063.89
1065.8
1065.72
1065.61
1065.43
1067.12
1069.71
1068.5
1064.94
1064.75
1064.75
1064.77
1064.87
1065.18
1065.56
1065.52
1065.19
1064.51
1064.09
1063.16
1058.67
1081.31
1068.18
1075.3
1066.76
1061.89
1064.3
1064.66
1064.73
1064.73
1064.73
1064.76
1064.78
1064.79
1064.77
1064.75
1064.74
1064.79
1064.82
1064.83
1064.81
1064.7
1064.48
1064.27
1064.36
1064.61
1064.76
1064.81
1064.82
1064.82
1064.82
1064.81
1064.92
1065.74
1066.64
1063.94
1065.01
1065.01
1064.99
1064.87
1064.41
1063.89
1063.54
1069.68
1068.72
1061.46
1062.59
1070.67
1071.67
1071.36
1070.58
1069.12
1068.63
1069.82
1070.18
1069.96
1068.8
1064.99
1060.28
1063.83
1072.24
1078.3
1082.14
1081.88
1076.42
1064.8
1061.02
1065.69
1071.58
1073.23
1071.23
1070.9
1072.85
1076.11
1075.22
1073.45
1072.3
1071.83
1072.05
1072.28
1072.36
1072.35
1072.28
1072.04
1074.47
1079.64
1052.19
1051.02
1067.21
1074.54
1076.51
1071.44
1059.47
1056.54
1062.07
1067.15
1069.28
1070.57
1071.53
1072
1072.1
1072.09
1072
1072.05
1072.07
1072.09
1071.84
1071.22
1070.77
1070.69
1071.15
1071.64
1071.9
1071.9
1071.69
1071.45
1071.42
1071.53
1071.4
1071.29
1071.5
1071.66
1071.73
1071.76
1072.27
1072.9
1073.02
1072.25
1071.94
1072.13
1072.71
1073.83
1073.36
1072.69
1072.5
1072.57
1072.7
1072.81
1072.93
1072.93
1072.85
1072.85
1073.06
1073.64
1074.27
1073.74
1073.05
1072.69
1072.55
1072.49
1072.45
1072.43
1072.45
1072.57
1073.35
1077.72
1080.7
1054.86
1054.82
1071.08
1077.31
1074
1072.87
1072.61
1072.5
1072.44
1072.4
1072.39
1072.39
1072.38
1072.05
1069.05
1067.19
1070.97
1072.31
1072.31
1072.24
1071.94
1068.86
1065.65
1071.99
1072.43
1072.47
1072.05
1071.86
1077.73
1083.81
1083.33
1073.05
1071.97
1072.16
1072.24
1072.36
1072.74
1073.37
1074.03
1075.59
1072.06
1071.52
1071.05
1073.44
1085.99
1073.38
1074.97
1069.02
1071.1
1072.17
1072.3
1072.32
1072.29
1072.28
1072.3
1072.33
1072.33
1072.32
1072.31
1072.33
1072.39
1072.45
1072.46
1072.29
1072.02
1071.9
1071.92
1072.1
1072.27
1072.35
1072.38
1072.39
1072.4
1072.4
1072.41
1072.45
1072.84
1073.5
1071.5
1072.46
1072.47
1072.48
1072.47
1072.19
1071.59
1072.07
1079.69
1075.3
1069.08
1072.54
1077.69
1078.77
1078.34
1077.48
1075.4
1075.53
1078.17
1079.73
1079.81
1079.78
1077.32
1065.02
1067.56
1084.01
1092.09
1096.37
1092.65
1083.26
1073.21
1068.16
1069.39
1072.94
1075.81
1075.5
1082.53
1090.63
1094.05
1090.08
1082.95
1078.7
1078.49
1079.32
1079.75
1079.87
1079.96
1080.02
1080.04
1083.24
1085.38
1060.33
1056.96
1075.75
1080.42
1081.49
1075.48
1064.39
1060.97
1067.69
1074.22
1076.53
1077.55
1078.11
1077.87
1077.67
1077.29
1077.46
1078.35
1079.12
1079.51
1079.46
1079.25
1078.72
1078.4
1078.48
1078.77
1078.76
1078.47
1078.24
1078.34
1078.63
1078.87
1078.92
1078.96
1079.29
1079.6
1079.66
1079.46
1079.61
1080.03
1080.03
1079.82
1079.73
1079.45
1079.68
1081.35
1081.34
1080.67
1080.4
1080.37
1080.42
1080.49
1080.64
1080.66
1080.58
1080.54
1080.67
1081
1081.45
1081.2
1080.49
1080.17
1080.06
1080.01
1080
1080.02
1080.1
1080.34
1081.96
1087.97
1084.15
1057.88
1056.86
1078.94
1084.29
1081.77
1080.53
1080.17
1080.05
1080.01
1079.98
1079.93
1079.89
1079.8
1079.42
1077.12
1073.68
1077.18
1079.44
1079.79
1079.77
1079.5
1078.34
1077.15
1078.65
1079.06
1079.25
1078.34
1077.18
1082.67
1093.17
1090.95
1078.15
1079.27
1079.74
1079.87
1079.93
1080.01
1080.21
1081.81
1089.1
1082.91
1078.86
1078.47
1089.55
1086.63
1078.06
1075.99
1071.39
1081.11
1080.19
1079.97
1079.88
1079.78
1079.75
1079.77
1079.82
1079.84
1079.83
1079.82
1079.83
1079.89
1079.97
1080.01
1079.74
1079.46
1079.54
1079.7
1079.81
1079.87
1079.92
1079.94
1079.94
1079.95
1079.95
1079.97
1080.05
1080.24
1080.33
1079.85
1079.96
1079.96
1079.95
1079.96
1079.89
1079.35
1079.57
1087.55
1081.73
1077.11
1082.67
1084.97
1084.87
1083.86
1082.57
1080.51
1083.41
1089.91
1090.36
1090.09
1089.6
1086.47
1073.61
1066.9
1073.81
1082.79
1097.36
1095.83
1089.07
1084.97
1081.62
1076
1082.51
1086.46
1086.24
1093.42
1096.77
1098.21
1094.5
1087.31
1083.77
1084.29
1086.13
1087.2
1087.48
1087.61
1087.79
1088.07
1090.14
1092.66
1079.99
1070.97
1082.62
1085.98
1087.23
1086.45
1078.31
1072.27
1078.52
1083.84
1086.02
1086.98
1086.93
1083.38
1080.75
1080.98
1083.31
1085.22
1086.32
1086.76
1086.92
1086.47
1085.65
1084.77
1084.55
1084.69
1084.85
1085.07
1085.6
1086.11
1086.44
1086.61
1086.55
1086.45
1086.57
1086.92
1087.08
1087
1086.94
1087.29
1087.41
1087.44
1087.51
1087.63
1087.43
1087.72
1088.3
1088.15
1088.01
1088.05
1088.06
1088.01
1088.05
1088.3
1088.69
1089.26
1089.62
1089.08
1088.77
1088.31
1087.88
1087.7
1087.6
1087.58
1087.62
1087.8
1088.11
1088.55
1090.01
1092.81
1083.57
1066.71
1062.76
1084.58
1090.83
1088.82
1087.77
1087.66
1087.58
1087.53
1087.48
1087.37
1087.2
1086.88
1086.25
1084.35
1081.68
1083.58
1086.2
1087.2
1087.28
1087.14
1086.39
1085.15
1084.56
1085.5
1087.41
1086.77
1084.84
1088.41
1098.31
1094.9
1086.01
1087.57
1087.55
1087.52
1087.53
1087.62
1087.92
1088.98
1098.66
1095.29
1089.43
1089.81
1088.93
1079.94
1077.23
1085.59
1085.56
1089.02
1088.27
1087.86
1087.16
1086.94
1087.13
1087.27
1087.33
1087.34
1087.3
1087.23
1087.18
1087.2
1087.29
1087.37
1087.27
1087.17
1087.3
1087.39
1087.42
1087.43
1087.47
1087.48
1087.47
1087.47
1087.49
1087.55
1087.67
1087.78
1087.7
1087.52
1087.49
1087.48
1087.48
1087.49
1087.49
1087.27
1086.68
1090.88
1086.92
1085.96
1092.94
1092.51
1090.19
1086.72
1081.96
1088.11
1099.37
1104.98
1103.78
1101.37
1098.02
1090.53
1076.61
1067.66
1071.68
1081.55
1096.82
1098.19
1094.24
1093.21
1093.25
1092.93
1095.42
1092.48
1088.66
1088.43
1087.9
1097.44
1098.23
1092.77
1089.18
1089.45
1092.65
1095.08
1095.38
1095.31
1095.32
1095.6
1096.67
1098.21
1092.99
1085.99
1088.99
1091.96
1093.16
1093.12
1090.99
1088.38
1091.3
1094.07
1095.83
1096.99
1095.88
1089.49
1084.52
1086.81
1090.74
1092.72
1093.51
1093.72
1093.43
1091.97
1089.99
1089.24
1090.21
1091.88
1092.97
1093.65
1094.08
1094.23
1094.14
1093.7
1093.31
1093.96
1094.2
1094.33
1094.46
1094.48
1094.59
1094.89
1094.99
1095.01
1095.07
1095.23
1095.42
1095.41
1095.31
1095.22
1095.25
1095.34
1095.31
1095.19
1095.17
1095.38
1096.29
1098.3
1100.28
1097.28
1095.74
1095.36
1095.38
1095.28
1095.2
1095.2
1095.32
1095.57
1095.83
1096.03
1096.4
1097.42
1096.53
1088.03
1081.82
1092.43
1096.56
1095.62
1095.23
1095.15
1095.08
1095.03
1094.91
1094.69
1094.31
1093.92
1093.58
1092.76
1090.72
1090.16
1092.31
1094.1
1094.48
1094.41
1093.52
1091.6
1090.28
1091.78
1096.65
1097.27
1095.37
1095.53
1101.74
1101.29
1099
1097.7
1095.66
1095.24
1095.24
1095.8
1097.52
1099.42
1104.32
1100.98
1096.33
1096.44
1083.46
1078.68
1077.43
1088.83
1095.82
1095.82
1095.56
1095.24
1094.71
1094.82
1094.98
1094.92
1094.89
1094.87
1094.77
1094.63
1094.52
1094.53
1094.62
1094.72
1094.79
1094.85
1094.95
1095.01
1095.02
1094.99
1095.08
1095.05
1095.01
1095.01
1095.1
1095.31
1095.48
1095.39
1095.2
1095.07
1095.03
1095.01
1095.01
1095.01
1095.06
1095.17
1095.4
1096.61
1095.35
1095.04
1100.64
1099.17
1094.6
1083.97
1079.97
1087.62
1101.21
1111.64
1110.17
1106.75
1102.63
1095.82
1083.55
1073.87
1083.88
1101.67
1105.98
1102.66
1098.28
1097.41
1097.37
1101.2
1094.98
1087.79
1084.88
1081.97
1091.02
1104.34
1103.35
1099.83
1094.91
1094.09
1100.89
1105.28
1104.89
1103.5
1102.95
1102.91
1103
1102.88
1099.5
1095.72
1095.97
1098.27
1099.64
1100.14
1100.06
1099.9
1101.04
1102.66
1103.84
1104.17
1101.01
1093.96
1090.49
1093.97
1098.18
1099.86
1100.11
1100.05
1099.56
1098.31
1096.55
1095.89
1097.74
1100.4
1101.76
1102.19
1102.35
1102.46
1102.67
1100.13
1099.77
1105.11
1103.27
1102.02
1102.07
1102.14
1102.3
1102.44
1102.49
1102.51
1102.54
1102.69
1103.14
1102.92
1102.74
1102.67
1102.67
1102.67
1102.59
1102.52
1102.51
1102.57
1102.9
1105.33
1109.73
1104.76
1102.59
1102.76
1103.33
1103.53
1103.33
1103.09
1102.88
1102.97
1103.08
1103.15
1103.33
1103.57
1103.32
1102.14
1101.14
1102.36
1102.9
1102.72
1102.68
1102.66
1102.56
1102.51
1102.4
1102.13
1101.6
1101.21
1101.11
1100.74
1098.98
1096.72
1098.05
1100.7
1101.45
1101.5
1100.88
1099.03
1097.31
1096.92
1101.06
1104.04
1104.23
1103.61
1105.85
1109.27
1111.91
1108.16
1104.49
1103.86
1103.99
1106.06
1110.72
1110.33
1109.24
1105.02
1102.87
1103.58
1100.9
1092.78
1092.25
1101.74
1102.62
1102.56
1102.53
1102.53
1102.58
1102.91
1102.75
1102.46
1102.39
1102.32
1102.16
1101.93
1101.82
1101.92
1102.07
1102.19
1102.28
1102.35
1102.43
1102.48
1102.48
1102.51
1102.66
1102.8
1102.64
1102.68
1102.79
1102.95
1102.99
1102.85
1102.69
1102.61
1102.56
1102.56
1102.53
1102.54
1102.6
1102.77
1103.16
1103.5
1103.09
1102.83
1107.86
1105.62
1098.01
1085.5
1080.61
1085.2
1099.45
1114.41
1113.15
1110.38
1107.34
1102.57
1095.84
1090.02
1103.62
1110.95
1111.21
1107.49
1099.03
1096.44
1104.16
1111.2
1088.99
1081.73
1079.9
1085.06
1102.39
1109.94
1109.42
1108.19
1101.96
1101.03
1109.71
1113.37
1114.9
1113.46
1109.82
1108.76
1108.22
1107.42
1105.67
1104.26
1104.57
1106.33
1107.58
1108.09
1107.95
1107.62
1107.81
1108.64
1109.49
1109.89
1108.1
1103.15
1100.49
1103
1105.7
1106.25
1105.46
1104.93
1105.12
1105.37
1105.1
1104.97
1106.49
1108.77
1109.96
1110.39
1110.6
1111.42
1112.16
1106.53
1110.67
1120.27
1115.97
1109.56
1109.38
1109.68
1109.82
1109.94
1109.95
1109.91
1109.8
1110.22
1113
1110.26
1109.94
1110.11
1110.16
1110.11
1110.04
1109.99
1109.99
1110.04
1110.42
1113.72
1117.55
1112.39
1109.99
1110.51
1111.81
1112.39
1111.76
1110.91
1110.41
1110.23
1110.26
1110.39
1110.75
1110.82
1110.27
1109.91
1109.81
1109.94
1110.03
1110.07
1110.16
1110.1
1110.06
1109.96
1109.9
1109.7
1109.27
1108.57
1107.75
1106.8
1105.12
1104.03
1105.56
1107.64
1108.55
1108.9
1109.1
1109.07
1108.49
1107.35
1107.71
1109.09
1110.23
1110.49
1110.59
1117.81
1122.15
1116.99
1113.59
1116.89
1120.2
1124.62
1128.73
1120.39
1113.34
1110.62
1109.94
1110.04
1109.9
1108.6
1107.91
1109.55
1109.92
1109.96
1109.96
1109.96
1110.19
1110.97
1110.68
1109.85
1109.67
1109.58
1109.42
1109.2
1109.11
1109.32
1109.56
1109.69
1109.76
1109.81
1109.85
1109.88
1109.91
1109.92
1110.07
1110.25
1110.22
1110.45
1110.5
1110.45
1110.37
1110.28
1110.19
1110.12
1110.05
1110.02
1110.02
1110.04
1110.11
1110.32
1110.71
1110.87
1110.62
1110.34
1111.82
1109.59
1105.38
1095.46
1088.81
1103.57
1121.92
1121.13
1117.85
1115.15
1110.57
1105.83
1104.08
1106.12
1113.25
1117.24
1116.32
1109.99
1100.04
1097.21
1106.52
1118.97
1097.82
1092.58
1097.59
1109.93
1116.21
1116.3
1116.77
1114.08
1103.84
1100.06
1104.52
1112.82
1119.01
1122.38
1116.61
1114.29
1113.56
1113.19
1113.11
1113.14
1113.72
1114.64
1115.22
1115.38
1114.55
1113.41
1113.5
1114.9
1116.06
1116.59
1116.59
1115.46
1113.26
1112.95
1113.79
1112.97
1111.27
1110.82
1111.88
1113.05
1113.5
1113.48
1114.36
1116.64
1118.31
1119.2
1120.47
1121.02
1118.24
1115.34
1121.29
1125.24
1125.83
1117.24
1115.96
1116.35
1116.98
1117.19
1117.12
1116.33
1116.15
1121.71
1127.45
1118.15
1116.38
1117.36
1117.55
1117.62
1117.53
1117.49
1117.49
1117.56
1118.43
1122.77
1124.26
1119.28
1117.71
1118.11
1119.19
1119.45
1118.41
1117.6
1117.46
1117.63
1117.85
1118.4
1119.61
1118.85
1116.73
1117.46
1117.47
1117.47
1117.48
1117.49
1117.48
1117.48
1117.28
1117.3
1117.18
1117.11
1116.83
1115.07
1113.01
1113.21
1113.2
1113.27
1114.68
1115.58
1116.05
1116.43
1116.71
1116.88
1116.88
1116.59
1116.07
1115.77
1116.36
1116.86
1116.96
1126.9
1129.93
1124.56
1122.2
1131.04
1137.6
1142.35
1143.87
1130.78
1119.04
1117.42
1117.28
1117.31
1117.27
1117.01
1116.74
1117.24
1117.63
1117.65
1117.54
1117.63
1118.04
1119.29
1118.32
1116.76
1116.74
1116.86
1116.84
1116.68
1116.53
1116.73
1117.03
1117.19
1117.27
1117.31
1117.34
1117.35
1117.36
1117.36
1117.39
1117.45
1117.55
1117.74
1117.86
1117.88
1117.83
1117.75
1117.64
1117.52
1117.48
1117.46
1117.45
1117.47
1117.54
1117.72
1118.03
1118.37
1118.19
1117.93
1111.79
1120.14
1123.28
1123.35
1123.1
1133.33
1130.82
1126.45
1124.14
1122.1
1117.22
1112.71
1114.94
1120.5
1123.9
1123.74
1121.26
1114.27
1103.64
1101.17
1123.82
1134.81
1128.26
1123.85
1123.66
1124.48
1124.41
1124.32
1125.18
1118.02
1101.29
1097.75
1098.86
1102.35
1112.93
1127.25
1124.22
1122.09
1122.15
1122.44
1122.55
1122.16
1121.68
1121.32
1121.59
1121.96
1122.03
1121.9
1122.46
1123.18
1123.72
1123.96
1123.87
1123.31
1122.32
1121.78
1121.67
1120.71
1119.77
1119.99
1120.72
1121.3
1121.12
1120.19
1120.46
1122.76
1124.35
1125.39
1125.94
1122.73
1115.77
1113.35
1115.34
1119.04
1130.85
1125.8
1123.45
1123.29
1124.26
1124.47
1123.68
1122.1
1121.92
1129.91
1135.06
1122.76
1123.02
1124.76
1125.01
1125.04
1124.98
1124.94
1124.9
1124.89
1125.92
1131.7
1130.88
1125.93
1124.71
1125.17
1125.68
1125.67
1125.28
1125.09
1125.07
1125.16
1125.4
1126.54
1130.57
1128.76
1122.58
1124.97
1125.25
1124.98
1124.92
1124.9
1124.87
1124.64
1124.44
1124.34
1124.32
1124.43
1124.14
1120.85
1117.43
1119.49
1122.4
1122.85
1122.92
1122.86
1123.28
1123.86
1124.2
1124.38
1124.43
1124.34
1124.14
1123.88
1123.76
1123.78
1120.09
1127.63
1133.01
1131.01
1125.92
1132.69
1140.13
1147.11
1149.15
1141.22
1126.59
1124.35
1124.61
1124.71
1124.68
1124.52
1124.33
1124.5
1124.73
1124.85
1124.88
1124.93
1125.16
1126.4
1125.04
1123.75
1124.11
1124.35
1124.38
1124.25
1124.07
1124.25
1124.56
1124.72
1124.78
1124.81
1124.82
1124.82
1124.81
1124.81
1124.81
1124.83
1124.86
1124.97
1125.19
1125.34
1125.25
1125.06
1124.95
1124.92
1124.92
1124.9
1124.89
1124.9
1124.94
1125.08
1125.47
1125.69
1126
1125.46
1105.66
1111.91
1121.8
1131.62
1139.87
1140.17
1135.29
1132.4
1131.01
1129.44
1125.54
1122.11
1128.09
1131.9
1131.99
1131.72
1130.43
1124.13
1109.04
1113.63
1141.03
1145.77
1138.12
1134.09
1132.86
1132.4
1132.15
1131.99
1132.13
1126.97
1106.93
1098.16
1099.12
1102.13
1113.64
1129.7
1130.72
1130.22
1131.15
1131.57
1131.5
1130.85
1129.09
1127.3
1127.16
1129
1130.59
1131.32
1131.56
1131.52
1131.35
1130.93
1130.17
1129.51
1129.32
1129.4
1129.58
1129.63
1129.72
1130.04
1130.19
1130.18
1128.5
1125.59
1125.39
1128.81
1130.74
1131.83
1132.61
1133.67
1131.58
1116.4
1110.26
1115.72
1135.19
1136.13
1131.86
1130.63
1131.38
1132.2
1131.16
1128.23
1126.98
1134.93
1139.94
1129.98
1130.97
1132.23
1132.45
1132.54
1132.58
1132.53
1132.44
1132.32
1134.01
1140.47
1137.86
1132.9
1132.07
1132.51
1132.82
1132.82
1132.68
1132.62
1132.62
1132.69
1132.82
1134.34
1139.11
1136.65
1131.48
1135.23
1134.6
1132.94
1132.5
1132.32
1132.1
1131.95
1131.97
1132.04
1132.11
1132.14
1131.64
1127.94
1123.25
1127.07
1130.09
1130.54
1130.32
1129.31
1130.39
1132.64
1132.08
1132.02
1131.98
1131.92
1131.87
1131.85
1131.82
1131.56
1125.86
1124.83
1133.85
1137.59
1132.7
1135.62
1139.06
1148.54
1149.47
1143.31
1136.19
1130.95
1132.32
1132.41
1132.39
1132.09
1131.63
1131.65
1131.96
1132.15
1132.22
1132.25
1132.52
1133.26
1132.04
1131.31
1131.77
1131.98
1131.99
1131.8
1131.53
1131.72
1132.04
1132.18
1132.23
1132.26
1132.3
1132.33
1132.3
1132.25
1132.25
1132.26
1132.28
1132.36
1132.57
1132.8
1132.69
1132.47
1132.36
1132.34
1132.35
1132.34
1132.33
1132.33
1132.38
1132.57
1133.46
1133.17
1133.08
1132.97
1099.78
1102.27
1105.52
1113.52
1133.1
1141.99
1140.05
1138.59
1137.81
1135.99
1132.48
1128.09
1136.13
1139.14
1139.66
1139.54
1138.99
1132.44
1113.9
1120.55
1141.72
1149.91
1148.72
1144.06
1141.27
1140.05
1139.51
1139.18
1138.73
1135.47
1121.34
1107
1108.97
1117.47
1133.27
1138.32
1137.12
1137.44
1138.59
1139.14
1139.16
1138.79
1136.75
1133.68
1133.38
1136.44
1138.45
1139.14
1139.3
1139.24
1138.69
1137.32
1136.16
1136.26
1136.88
1137.33
1137.57
1137.76
1138.16
1138.45
1138.77
1138.66
1134.43
1128.76
1129.94
1136.49
1138.83
1139.43
1139.7
1140.09
1140.85
1134.45
1111.22
1131.2
1142.83
1142.24
1140.84
1138.8
1138.28
1139.81
1139.47
1136.38
1134.22
1138.51
1144.97
1139.12
1139.19
1139.75
1140.04
1140.51
1140.89
1140.95
1140.66
1140.33
1142.8
1147.18
1143.97
1139.65
1139.49
1139.87
1140.12
1140.17
1140.17
1140.11
1140.1
1140.21
1140.42
1141.18
1143.12
1135.7
1135.3
1141.34
1143.14
1140.83
1140
1139.75
1139.7