/*--------------------------------*- C++ -*----------------------------------*\
  =========                 |
  \\      /  F ield         | OpenFOAM: The Open Source CFD Toolbox
   \\    /   O peration     | Website:  https://openfoam.org
    \\  /    A nd           | Version:  8
     \\/     M anipulation  |
\*---------------------------------------------------------------------------*/
FoamFile
{
    version     2.0;
    format      ascii;
    class       volVectorField;
    location    "1000";
    object      U;
}
// * * * * * * * * * * * * * * * * * * * * * * * * * * * * * * * * * * * * * //

dimensions      [0 1 -1 0 0 0 0];

internalField   nonuniform List<vector> 
20000
(
(2.61505e-06 0 -1.99316e-06)
(5.29181e-06 0 3.69148e-07)
(3.52895e-06 0 2.10763e-06)
(6.80099e-07 0 1.18192e-06)
(-2.14662e-07 0 -5.50149e-08)
(-6.06827e-08 0 9.75671e-11)
(-3.52739e-07 0 3.2691e-07)
(-1.20971e-06 0 5.46094e-07)
(-2.54585e-06 0 8.04253e-07)
(-4.51666e-06 0 1.19392e-06)
(-7.69662e-06 0 2.0513e-06)
(-1.2711e-05 0 3.12461e-06)
(1.06711e-05 0 -2.61979e-05)
(5.6777e-05 0 -1.94e-05)
(-3.12073e-05 0 0.000108174)
(-0.000187206 0 4.91803e-05)
(-3.99794e-05 0 -0.000194115)
(0.000304999 0 -0.000147898)
(0.000327932 0 0.000127105)
(7.045e-05 0 0.000131149)
(-7.26209e-05 0 1.20437e-05)
(-8.45376e-05 0 -1.69229e-07)
(-8.41741e-05 0 -1.47334e-07)
(-8.4654e-05 0 7.59157e-07)
(-8.68465e-05 0 1.62436e-06)
(-8.99989e-05 0 1.82639e-06)
(-9.21981e-05 0 6.3037e-07)
(-9.15768e-05 0 -1.02464e-06)
(-8.82307e-05 0 -2.24127e-06)
(-8.14446e-05 0 -4.78402e-06)
(-7.22941e-05 0 -5.07357e-06)
(-6.25138e-05 0 -5.73662e-06)
(-5.16647e-05 0 -5.87942e-06)
(-4.17114e-05 0 -4.54164e-06)
(-3.50567e-05 0 -2.40037e-06)
(-3.22943e-05 0 -6.38746e-07)
(-3.20083e-05 0 2.1561e-08)
(-3.17511e-05 0 -6.84762e-07)
(-2.90385e-05 0 -2.51671e-06)
(-2.26265e-05 0 -4.48374e-06)
(-1.44367e-05 0 -4.31456e-06)
(-9.60346e-06 0 -9.81023e-07)
(-1.25265e-05 0 3.69681e-06)
(-2.31887e-05 0 7.09381e-06)
(-3.93017e-05 0 9.35414e-06)
(-5.85686e-05 0 1.04434e-05)
(-7.83772e-05 0 9.80236e-06)
(-9.49996e-05 0 7.10622e-06)
(-0.000105834 0 3.57896e-06)
(-0.000109854 0 -3.02829e-07)
(-0.000106038 0 -4.21931e-06)
(-9.5686e-05 0 -6.5794e-06)
(-8.33273e-05 0 -5.81162e-06)
(-7.28561e-05 0 -4.46676e-06)
(-6.04379e-05 0 -7.77071e-06)
(-3.17475e-05 0 -2.13186e-05)
(-3.3125e-05 0 2.08993e-05)
(-5.92374e-05 0 2.68105e-06)
(-5.36152e-05 0 -9.9487e-06)
(-4.18362e-05 0 -2.37699e-06)
(-3.96629e-05 0 4.45814e-08)
(-4.108e-05 0 1.32673e-06)
(-4.59509e-05 0 3.49514e-06)
(-5.58116e-05 0 6.10813e-06)
(-6.91879e-05 0 5.96922e-06)
(-7.12352e-05 0 -6.59774e-06)
(-6.73313e-05 0 -5.08082e-08)
(-6.30597e-05 0 -6.11059e-06)
(-4.23945e-05 0 -1.57117e-05)
(-2.58573e-05 0 -1.55931e-06)
(-2.62812e-05 0 1.48642e-06)
(-2.9094e-05 0 1.02843e-06)
(-3.51607e-05 0 4.85481e-06)
(-4.53085e-05 0 5.20848e-06)
(-5.37456e-05 0 3.19962e-06)
(-5.84684e-05 0 1.51543e-06)
(-6.05694e-05 0 5.91336e-07)
(-6.12307e-05 0 8.39579e-08)
(-6.19436e-05 0 6.39285e-07)
(-7.46675e-05 0 1.20054e-05)
(-0.000147784 0 6.063e-05)
(-5.01334e-05 0 -0.000159782)
(-0.000105121 0 0.000212094)
(-4.97552e-05 0 -0.000270407)
(5.68102e-05 0 0.000161714)
(-0.000119448 0 1.34376e-05)
(-0.000120246 0 -1.31351e-05)
(-9.72009e-05 0 -1.0141e-05)
(-8.12868e-05 0 -5.91777e-06)
(-7.18309e-05 0 -3.65708e-06)
(-6.36828e-05 0 -4.62281e-06)
(-5.00377e-05 0 -9.17853e-06)
(-3.04169e-05 0 -1.0577e-05)
(-1.51056e-05 0 -4.81838e-06)
(-9.15224e-06 0 -1.18333e-06)
(-8.14771e-06 0 1.4748e-07)
(-9.79897e-06 0 1.44338e-06)
(-1.46837e-05 0 3.2463e-06)
(-2.0331e-05 0 1.89156e-06)
(-2.44655e-05 0 1.57213e-06)
(-2.71895e-05 0 6.6047e-07)
(-2.82155e-05 0 1.17306e-07)
(-2.99728e-05 0 1.4958e-06)
(-3.55292e-05 0 3.95857e-06)
(-4.72402e-05 0 7.70413e-06)
(-6.57953e-05 0 1.07743e-05)
(-8.50546e-05 0 8.41568e-06)
(-9.62497e-05 0 2.75589e-06)
(-9.50459e-05 0 -3.90898e-06)
(-7.74103e-05 0 -1.34833e-05)
(-4.56733e-05 0 -1.79586e-05)
(-1.49718e-05 0 -1.25469e-05)
(1.86363e-06 0 -4.16577e-06)
(6.9619e-06 0 -8.55667e-07)
(7.76327e-06 0 1.29648e-07)
(6.92793e-06 0 8.41043e-07)
(4.59562e-06 0 1.78645e-06)
(1.11991e-06 0 2.13676e-06)
(-1.85702e-06 0 1.27431e-06)
(-3.21871e-06 0 3.87517e-07)
(-3.40746e-06 0 -5.13364e-09)
(-3.11215e-06 0 -1.38757e-07)
(-2.66353e-06 0 -1.4582e-07)
(-2.30137e-06 0 3.56211e-09)
(-2.2985e-06 0 2.91535e-07)
(-2.65509e-06 0 3.97543e-07)
(-3.09462e-06 0 3.04201e-07)
(-3.40006e-06 0 1.53587e-07)
(-3.49262e-06 0 1.81476e-08)
(-3.34869e-06 0 -1.16743e-07)
(-2.90747e-06 0 -2.88959e-07)
(-2.17825e-06 0 -3.79582e-07)
(-1.46718e-06 0 -1.98046e-07)
(-1.34413e-06 0 2.90124e-07)
(-3.00809e-06 0 1.69177e-06)
(-1.04157e-05 0 6.54789e-06)
(-2.80675e-05 0 1.2696e-05)
(-4.42889e-05 0 5.31259e-06)
(-4.67298e-05 0 -1.81788e-06)
(-4.09616e-05 0 -3.5682e-06)
(-3.45997e-05 0 -2.30394e-06)
(-3.07367e-05 0 -8.46913e-07)
(-2.89728e-05 0 -6.31099e-08)
(-2.81784e-05 0 3.49202e-07)
(-2.83482e-05 0 6.99313e-07)
(-2.65009e-05 0 -1.99419e-06)
(-1.79011e-05 0 -7.07905e-06)
(-8.61016e-06 0 -3.39383e-06)
(-4.73122e-06 0 -1.16445e-06)
(-3.59103e-06 0 -2.17789e-07)
(-3.61279e-06 0 2.85131e-07)
(-4.89559e-06 0 1.11067e-06)
(-9.78297e-06 0 3.97943e-06)
(-2.67431e-05 0 1.32867e-05)
(-6.49285e-05 0 2.49984e-05)
(-8.18138e-05 0 -9.13454e-06)
(-3.35052e-05 0 -4.22644e-05)
(3.07674e-05 0 -2.81141e-05)
(5.24421e-05 0 -1.66128e-06)
(4.01445e-05 0 7.53893e-06)
(2.28576e-05 0 6.79018e-06)
(9.70236e-06 0 5.29135e-06)
(2.26287e-06 0 1.70454e-06)
(-7.63843e-08 0 4.76144e-07)
(-7.87615e-07 0 1.35149e-07)
(-1.03142e-06 0 5.93475e-08)
(-1.21991e-06 0 6.69972e-08)
(-1.44081e-06 0 9.28219e-08)
(-1.80071e-06 0 1.84106e-07)
(-2.42337e-06 0 3.2533e-07)
(-3.32226e-06 0 4.7383e-07)
(-4.16379e-06 0 4.10146e-07)
(-4.60207e-06 0 1.90628e-07)
(-4.67857e-06 0 9.0115e-08)
(-4.67848e-06 0 1.02351e-07)
(-4.66361e-06 0 4.23076e-08)
(-4.48765e-06 0 -7.79728e-08)
(-1.79267e-05 0 1.37321e-05)
(-4.02031e-05 0 8.9903e-06)
(-3.44786e-05 0 -1.41871e-05)
(-9.88166e-06 0 -1.00007e-05)
(1.07279e-05 0 -1.02551e-05)
(1.27265e-05 0 8.72182e-06)
(-4.57936e-05 0 5.08176e-05)
(-0.000201646 0 0.000107704)
(-6.20352e-05 0 -0.00024242)
(8.67492e-05 0 9.9697e-05)
(-1.3565e-05 0 5.3404e-06)
(-1.5936e-05 0 -6.89366e-07)
(-1.33637e-05 0 -1.02396e-06)
(-1.05916e-05 0 -1.47661e-06)
(-7.40935e-06 0 -1.59394e-06)
(-4.74002e-06 0 -1.03239e-06)
(-3.28579e-06 0 -4.0018e-07)
(-2.97362e-06 0 1.28855e-07)
(-3.70234e-06 0 6.87025e-07)
(-4.9472e-06 0 7.61212e-07)
(-5.24443e-06 0 -1.86732e-07)
(-3.67026e-06 0 -8.77945e-07)
(-1.20734e-06 0 -1.17422e-06)
(7.01117e-07 0 -4.50542e-06)
(1.71788e-06 0 6.37021e-07)
(2.08409e-06 0 4.39917e-06)
(1.54259e-06 0 3.17881e-06)
(1.72591e-06 0 -7.13169e-07)
(2.39534e-06 0 1.98244e-07)
(1.07137e-06 0 1.91055e-06)
(-1.35807e-06 0 2.3194e-06)
(-3.47034e-06 0 2.52513e-06)
(-5.22094e-06 0 3.26021e-06)
(-8.11521e-06 0 6.19529e-06)
(-1.63974e-05 0 1.26094e-05)
(2.75829e-05 0 -0.000102326)
(0.000140388 0 -0.000100825)
(0.000103729 0 0.00031641)
(-4.04188e-05 0 0.000144359)
(-6.35306e-05 0 -0.000409011)
(-5.12283e-05 0 -0.000285406)
(-0.000110396 0 0.000304093)
(-0.000105498 0 0.000207599)
(-4.3123e-05 0 1.61422e-05)
(-3.42384e-05 0 -1.42987e-06)
(-3.31081e-05 0 -3.26949e-07)
(-3.30131e-05 0 1.52155e-06)
(-3.25505e-05 0 2.87421e-06)
(-3.15941e-05 0 3.16125e-06)
(-3.12558e-05 0 1.48867e-06)
(-3.2271e-05 0 -1.18327e-06)
(-3.3733e-05 0 -3.87381e-06)
(-3.54991e-05 0 -8.57628e-06)
(-3.60031e-05 0 -1.08715e-05)
(-3.42958e-05 0 -1.26051e-05)
(-3.27733e-05 0 -1.22283e-05)
(-3.23307e-05 0 -9.14296e-06)
(-3.20019e-05 0 -5.22632e-06)
(-3.071e-05 0 -2.38441e-06)
(-2.82443e-05 0 -1.60037e-06)
(-2.53085e-05 0 -2.97498e-06)
(-2.26404e-05 0 -6.4269e-06)
(-1.91408e-05 0 -1.14501e-05)
(-1.20263e-05 0 -1.37235e-05)
(-3.79206e-06 0 -5.52734e-06)
(-3.1216e-06 0 1.0039e-05)
(-9.11632e-06 0 1.74611e-05)
(-1.42519e-05 0 2.05434e-05)
(-1.71748e-05 0 2.18957e-05)
(-1.82204e-05 0 1.95562e-05)
(-1.71967e-05 0 1.31927e-05)
(-1.57061e-05 0 6.69413e-06)
(-1.68633e-05 0 1.04829e-06)
(-2.27989e-05 0 -4.06236e-06)
(-3.3645e-05 0 -6.48756e-06)
(-4.83492e-05 0 -3.30781e-06)
(-6.47621e-05 0 -5.37252e-07)
(-7.85675e-05 0 -1.01277e-05)
(-8.89868e-05 0 -3.84599e-05)
(-7.6587e-05 0 2.3605e-05)
(-4.81514e-05 0 -6.50859e-06)
(-3.14506e-05 0 -2.5657e-05)
(-2.46297e-05 0 -6.15005e-06)
(-2.36355e-05 0 3.5407e-07)
(-2.46487e-05 0 3.32944e-06)
(-2.54863e-05 0 7.07922e-06)
(-2.43352e-05 0 1.08768e-05)
(-2.23931e-05 0 1.11276e-05)
(-3.26482e-05 0 -2.5094e-06)
(-4.73093e-05 0 3.33106e-06)
(-5.77968e-05 0 -5.8245e-06)
(-6.87597e-05 0 -2.77544e-05)
(-7.05913e-05 0 -6.13912e-06)
(-6.58674e-05 0 6.68703e-10)
(-5.00209e-05 0 -1.17692e-05)
(-2.99807e-05 0 3.02859e-06)
(-1.95195e-05 0 6.41633e-06)
(-1.35419e-05 0 4.32032e-06)
(-1.07931e-05 0 2.31976e-06)
(-1.02701e-05 0 1.35962e-06)
(-1.14173e-05 0 1.1403e-06)
(-1.3576e-05 0 2.47226e-06)
(-6.46843e-06 0 1.56941e-05)
(5.74906e-05 0 6.54653e-05)
(2.10692e-05 0 -0.000227829)
(-6.11405e-05 0 0.000413902)
(-0.000211464 0 -0.000380898)
(-0.000225956 0 0.000177575)
(-5.93302e-05 0 5.86898e-06)
(-3.77668e-05 0 -2.69708e-05)
(-3.38419e-05 0 -2.36157e-05)
(-2.77314e-05 0 -1.47036e-05)
(-2.42441e-05 0 -8.01619e-06)
(-2.59502e-05 0 -6.93736e-06)
(-3.47651e-05 0 -1.19879e-05)
(-4.69521e-05 0 -1.55363e-05)
(-5.10497e-05 0 -1.13759e-05)
(-4.51295e-05 0 -6.73342e-06)
(-3.80719e-05 0 -2.56686e-06)
(-3.44766e-05 0 1.95459e-06)
(-3.46282e-05 0 7.22599e-06)
(-3.69364e-05 0 4.73363e-06)
(-4.04565e-05 0 4.91504e-06)
(-4.35869e-05 0 2.07802e-06)
(-4.5512e-05 0 1.0932e-06)
(-4.95606e-05 0 6.1073e-06)
(-5.70826e-05 0 1.24394e-05)
(-6.12552e-05 0 1.52246e-05)
(-5.3507e-05 0 1.41013e-05)
(-3.86926e-05 0 9.48809e-06)
(-2.88629e-05 0 3.01788e-06)
(-2.96848e-05 0 -4.50877e-06)
(-4.24764e-05 0 -1.74848e-05)
(-5.47751e-05 0 -3.30304e-05)
(-2.80283e-05 0 -5.45385e-05)
(1.59827e-05 0 -2.2692e-05)
(2.74254e-05 0 1.35218e-06)
(1.93748e-05 0 5.3675e-06)
(1.05005e-05 0 5.61044e-06)
(4.23386e-06 0 6.1411e-06)
(5.91771e-07 0 5.61642e-06)
(-1.07433e-06 0 3.11907e-06)
(-1.69558e-06 0 1.00756e-06)
(-1.93184e-06 0 1.19418e-07)
(-2.03303e-06 0 -1.89922e-07)
(-2.01165e-06 0 -2.50866e-07)
(-1.95421e-06 0 1.55188e-07)
(-2.17455e-06 0 9.93398e-07)
(-2.49968e-06 0 1.04177e-06)
(-2.58854e-06 0 6.77191e-07)
(-2.62059e-06 0 3.85527e-07)
(-2.80076e-06 0 2.10407e-07)
(-3.23106e-06 0 8.66077e-08)
(-3.97836e-06 0 -5.51147e-08)
(-4.95392e-06 0 -8.97932e-08)
(-5.91312e-06 0 4.37597e-07)
(-8.5261e-06 0 3.62755e-06)
(-1.76785e-05 0 1.14207e-05)
(-2.938e-05 0 1.8667e-05)
(-2.88605e-05 0 2.0474e-05)
(-1.938e-05 0 6.6307e-06)
(-1.45392e-05 0 -3.98073e-06)
(-1.50782e-05 0 -5.66538e-06)
(-1.85668e-05 0 -1.89112e-06)
(-2.37537e-05 0 1.56639e-06)
(-2.92338e-05 0 3.06925e-06)
(-3.47297e-05 0 4.17656e-06)
(-4.19925e-05 0 6.80615e-06)
(-4.98572e-05 0 -6.53647e-07)
(-4.41057e-05 0 -2.37625e-05)
(-2.66511e-05 0 -1.56163e-05)
(-1.50462e-05 0 -5.78694e-06)
(-1.13058e-05 0 -8.85812e-07)
(-1.22641e-05 0 1.94766e-06)
(-1.68852e-05 0 5.47569e-06)
(-2.55746e-05 0 1.31987e-05)
(-3.62656e-05 0 3.1318e-05)
(-3.73459e-05 0 4.48675e-05)
(-1.93409e-05 0 -3.3191e-05)
(-6.18308e-06 0 -8.47934e-05)
(-1.14823e-05 0 -5.22137e-05)
(-1.35473e-05 0 -6.37251e-06)
(-5.68832e-06 0 9.44132e-06)
(1.76634e-06 0 1.09546e-05)
(3.86633e-06 0 1.03446e-05)
(2.02851e-06 0 4.70216e-06)
(-7.92443e-07 0 1.84755e-06)
(-2.09038e-06 0 2.89028e-07)
(-2.23418e-06 0 -1.14743e-08)
(-2.11327e-06 0 3.57131e-08)
(-2.12466e-06 0 2.17805e-07)
(-2.34441e-06 0 5.06925e-07)
(-2.86217e-06 0 1.00378e-06)
(-3.75924e-06 0 1.56387e-06)
(-4.96143e-06 0 1.5562e-06)
(-6.06398e-06 0 9.57998e-07)
(-6.74124e-06 0 5.11104e-07)
(-7.04817e-06 0 3.73855e-07)
(-7.2743e-06 0 2.8472e-07)
(-9.66892e-06 0 2.16621e-06)
(-1.87712e-05 0 3.44453e-05)
(-3.45138e-05 0 2.7065e-05)
(-4.12287e-05 0 -3.02502e-05)
(-2.39238e-05 0 -3.47074e-05)
(1.5723e-05 0 -4.44148e-05)
(1.10493e-05 0 4.76252e-05)
(-1.13379e-05 0 9.59834e-05)
(7.07203e-05 0 0.000141247)
(-3.17715e-05 0 -0.000306372)
(-0.000113289 0 0.000103574)
(-1.00371e-05 0 3.81732e-06)
(-2.9458e-06 0 -1.37147e-06)
(-3.47101e-06 0 -1.4394e-06)
(-5.156e-06 0 -1.85463e-06)
(-7.48277e-06 0 -1.96754e-06)
(-9.4361e-06 0 -1.33568e-06)
(-1.02802e-05 0 -6.1604e-07)
(-9.97076e-06 0 -5.21014e-08)
(-8.44278e-06 0 4.08058e-07)
(-5.79068e-06 0 7.20252e-08)
(-3.03964e-06 0 -1.45258e-06)
(-1.25767e-06 0 -2.31703e-06)
(-3.36417e-07 0 -2.61271e-06)
(4.61271e-07 0 -5.29257e-06)
(9.70083e-07 0 7.54209e-07)
(1.15867e-06 0 4.76271e-06)
(4.73499e-06 0 9.55001e-07)
(1.29859e-05 0 -5.76496e-06)
(1.9681e-05 0 -1.16866e-06)
(1.43708e-05 0 1.0509e-05)
(2.48796e-06 0 8.30829e-06)
(-4.07404e-06 0 5.34453e-06)
(-7.45821e-06 0 5.68201e-06)
(-1.36268e-05 0 1.30115e-05)
(-2.11395e-05 0 2.20692e-05)
(0.000172689 0 -0.000347873)
(0.000365383 0 -0.000156422)
(0.000245957 0 0.000534579)
(7.21768e-05 0 0.000250616)
(-0.000100661 0 -0.00031413)
(-0.000220202 0 -0.000269636)
(-0.000157094 0 0.000285553)
(-5.4936e-05 0 0.000118729)
(-1.94175e-05 0 6.57414e-06)
(-1.59062e-05 0 -4.54736e-06)
(-1.22282e-05 0 -2.04216e-06)
(-9.32536e-06 0 3.24509e-07)
(-7.28457e-06 0 1.68249e-06)
(-5.96431e-06 0 2.16467e-06)
(-5.18526e-06 0 1.39703e-06)
(-4.71642e-06 0 -5.42252e-07)
(-4.82308e-06 0 -2.98708e-06)
(-6.45851e-06 0 -6.22373e-06)
(-9.47076e-06 0 -9.88048e-06)
(-1.23332e-05 0 -1.25022e-05)
(-1.45178e-05 0 -1.16278e-05)
(-1.65392e-05 0 -8.13323e-06)
(-1.7885e-05 0 -5.32525e-06)
(-1.7391e-05 0 -4.34926e-06)
(-1.50548e-05 0 -4.81881e-06)
(-1.21242e-05 0 -6.03212e-06)
(-9.62658e-06 0 -8.9576e-06)
(-6.48484e-06 0 -1.60492e-05)
(4.16563e-07 0 -2.37336e-05)
(1.17326e-05 0 -1.56297e-05)
(1.31713e-05 0 1.76584e-05)
(-8.00867e-07 0 2.95365e-05)
(-1.39245e-05 0 2.63799e-05)
(-1.76923e-05 0 2.2381e-05)
(-1.44184e-05 0 1.65913e-05)
(-9.29845e-06 0 9.93406e-06)
(-6.17725e-06 0 5.38758e-06)
(-5.48038e-06 0 2.92341e-06)
(-7.15638e-06 0 1.86393e-06)
(-1.25948e-05 0 4.2223e-06)
(-2.27139e-05 0 1.12446e-05)
(-3.41742e-05 0 1.31377e-05)
(-4.39753e-05 0 -3.6582e-07)
(-5.63472e-05 0 -2.658e-05)
(-5.48282e-05 0 -4.41257e-06)
(-3.95393e-05 0 -2.43602e-05)
(-2.85448e-05 0 -3.66996e-05)
(-2.05162e-05 0 -1.05935e-05)
(-1.59658e-05 0 -1.05883e-06)
(-1.2856e-05 0 2.43223e-06)
(-9.49578e-06 0 5.27339e-06)
(-6.14041e-06 0 7.9768e-06)
(-4.24484e-06 0 9.89099e-06)
(-4.7776e-06 0 9.05393e-06)
(-6.97132e-06 0 7.99991e-06)
(-1.18773e-05 0 4.13029e-06)
(-2.8396e-05 0 -1.14111e-05)
(-5.35697e-05 0 2.63234e-06)
(-7.20585e-05 0 2.61397e-06)
(-6.84508e-05 0 -3.58438e-05)
(-4.46398e-05 0 -1.79287e-05)
(-2.27032e-05 0 -5.63891e-06)
(-1.15486e-05 0 -1.01761e-06)
(-7.19351e-06 0 4.50251e-07)
(-5.74955e-06 0 1.22448e-06)
(-5.60928e-06 0 2.27334e-06)
(-6.12106e-06 0 4.01542e-06)
(-5.69144e-06 0 6.59911e-06)
(2.89935e-06 0 1.83618e-06)
(-2.12116e-05 0 -0.000104249)
(-1.99895e-05 0 0.000370364)
(-2.72974e-05 0 -0.000180621)
(-4.40989e-05 0 8.01071e-06)
(-2.09825e-05 0 -1.46495e-05)
(-2.62098e-05 0 -2.30375e-05)
(-3.3628e-05 0 -2.42882e-05)
(-3.52078e-05 0 -1.88007e-05)
(-3.19974e-05 0 -1.08554e-05)
(-2.97066e-05 0 -4.93227e-06)
(-3.20459e-05 0 -3.13287e-06)
(-3.96966e-05 0 -4.92765e-06)
(-5.02617e-05 0 -7.73309e-06)
(-5.85617e-05 0 -8.38931e-06)
(-6.03615e-05 0 -6.57798e-06)
(-5.61418e-05 0 -2.37876e-06)
(-4.89569e-05 0 3.67248e-06)
(-4.23501e-05 0 2.68904e-06)
(-3.83345e-05 0 5.04544e-06)
(-3.67126e-05 0 2.48395e-06)
(-3.64759e-05 0 2.01492e-06)
(-3.46402e-05 0 7.53966e-06)
(-2.75096e-05 0 1.17859e-05)
(-1.62238e-05 0 9.11413e-06)
(-7.40228e-06 0 3.83242e-06)
(-3.71735e-06 0 1.30064e-06)
(-2.88885e-06 0 5.36864e-07)
(-4.28151e-06 0 1.62663e-07)
(-1.20227e-05 0 -1.65892e-06)
(-3.42122e-05 0 -1.43269e-05)
(-2.17153e-05 0 -0.000112349)
(3.2219e-05 0 -6.26893e-05)
(4.29145e-05 0 1.9321e-05)
(1.82159e-05 0 2.02855e-05)
(4.96663e-06 0 1.3063e-05)
(5.27362e-08 0 1.02669e-05)
(-2.02061e-06 0 7.77914e-06)
(-2.95214e-06 0 4.18776e-06)
(-3.23549e-06 0 1.35415e-06)
(-3.07197e-06 0 1.98308e-07)
(-2.82794e-06 0 -1.21568e-07)
(-2.59419e-06 0 -2.05719e-07)
(-2.60277e-06 0 6.45696e-07)
(-3.63804e-06 0 2.60516e-06)
(-4.67027e-06 0 1.58297e-06)
(-4.67638e-06 0 6.82228e-07)
(-4.52512e-06 0 4.59239e-07)
(-4.58244e-06 0 4.72438e-07)
(-4.81292e-06 0 5.74706e-07)
(-5.22338e-06 0 7.53166e-07)
(-6.03285e-06 0 1.23929e-06)
(-8.16725e-06 0 3.25481e-06)
(-1.36548e-05 0 1.16409e-05)
(-2.10675e-05 0 2.43581e-05)
(-2.47092e-05 0 2.54027e-05)
(-2.18355e-05 0 1.31588e-05)
(-1.74993e-05 0 1.76565e-06)
(-1.6102e-05 0 -4.03296e-06)
(-1.66504e-05 0 -3.25847e-06)
(-1.83399e-05 0 2.14441e-06)
(-1.98651e-05 0 5.55947e-06)
(-2.03143e-05 0 6.55579e-06)
(-2.07224e-05 0 8.38445e-06)
(-2.24633e-05 0 1.38303e-05)
(-2.82206e-05 0 7.36787e-06)
(-4.14712e-05 0 -2.45299e-05)
(-5.23804e-05 0 -2.24781e-05)
(-5.31159e-05 0 -1.07678e-05)
(-5.47924e-05 0 1.3477e-06)
(-6.61852e-05 0 1.10305e-05)
(-8.17789e-05 0 1.49833e-05)
(-8.94936e-05 0 1.77978e-05)
(-8.18663e-05 0 2.66215e-05)
(-5.69949e-05 0 2.15622e-05)
(-2.85634e-05 0 -6.09597e-05)
(-1.71439e-05 0 -8.55071e-05)
(-9.63089e-06 0 -5.62913e-05)
(-7.80311e-07 0 -1.06976e-05)
(1.56111e-07 0 3.77107e-06)
(-7.36084e-07 0 8.81697e-06)
(-1.82878e-06 0 1.00676e-05)
(-3.0012e-06 0 6.41455e-06)
(-4.73904e-06 0 3.23698e-06)
(-6.78597e-06 0 1.18473e-06)
(-8.87445e-06 0 6.16508e-07)
(-1.06156e-05 0 6.56835e-07)
(-1.20021e-05 0 8.01033e-07)
(-1.29179e-05 0 9.6894e-07)
(-1.314e-05 0 1.28923e-06)
(-1.24752e-05 0 1.61732e-06)
(-1.09239e-05 0 1.35635e-06)
(-8.87198e-06 0 5.0157e-07)
(-6.88193e-06 0 -5.16068e-08)
(-5.29489e-06 0 -9.75e-08)
(-4.38199e-06 0 2.78765e-07)
(-6.94961e-06 0 7.36344e-06)
(-1.11357e-05 0 4.29595e-05)
(-1.05501e-05 0 3.44135e-05)
(-1.80045e-05 0 -2.23849e-05)
(-3.3565e-05 0 -4.27818e-05)
(-5.02999e-05 0 -5.70236e-05)
(-5.67453e-05 0 7.43656e-05)
(-3.35167e-05 0 7.17792e-05)
(8.93753e-06 0 4.40337e-05)
(8.52438e-06 0 -0.000103931)
(-7.58797e-06 0 1.94435e-07)
(5.27955e-09 0 -2.90174e-06)
(-2.18719e-07 0 -1.18862e-06)
(-5.77399e-07 0 -6.06326e-07)
(-1.15786e-06 0 -3.90013e-07)
(-2.00382e-06 0 -2.69118e-07)
(-2.87633e-06 0 -2.04072e-07)
(-3.47741e-06 0 -1.98193e-07)
(-3.71797e-06 0 -2.90504e-07)
(-3.59434e-06 0 -6.74455e-07)
(-3.04063e-06 0 -1.72735e-06)
(-1.95971e-06 0 -3.19169e-06)
(-7.89507e-07 0 -3.24222e-06)
(-1.51461e-07 0 -3.00179e-06)
(-1.0842e-06 0 -4.14324e-06)
(-1.76903e-06 0 1.00701e-06)
(1.042e-06 0 2.99426e-06)
(8.32471e-06 0 -6.55573e-06)
(1.77456e-05 0 -1.43443e-05)
(3.17645e-05 0 -1.1795e-05)
(3.6675e-05 0 2.2752e-05)
(1.90026e-05 0 2.63999e-05)
(-6.23221e-06 0 1.95044e-05)
(-2.76341e-05 0 1.66559e-05)
(-5.15832e-05 0 3.26785e-05)
(-3.1007e-05 0 -9.24206e-06)
(-2.39936e-05 0 -0.000513514)
(-0.000335216 0 0.000134904)
(-0.000380053 0 0.000415825)
(5.19896e-06 0 0.000164425)
(7.41813e-05 0 -0.000120183)
(-8.60381e-05 0 -0.000182175)
(-9.1097e-05 0 0.000140025)
(-1.11128e-05 0 8.13459e-05)
(-1.15056e-05 0 8.15678e-06)
(-1.20847e-05 0 -9.34635e-06)
(-7.73919e-06 0 -5.31019e-06)
(-5.59922e-06 0 -1.42021e-06)
(-4.78761e-06 0 5.78942e-07)
(-4.22203e-06 0 1.30668e-06)
(-3.48213e-06 0 5.80402e-07)
(-2.62e-06 0 -1.22875e-06)
(-1.96816e-06 0 -2.95289e-06)
(-1.71546e-06 0 -4.89738e-06)
(-1.81779e-06 0 -8.02186e-06)
(-2.23356e-06 0 -1.09643e-05)
(-3.13436e-06 0 -9.92693e-06)
(-4.63985e-06 0 -6.16362e-06)
(-6.37523e-06 0 -4.15881e-06)
(-7.9994e-06 0 -4.42699e-06)
(-9.36227e-06 0 -5.83041e-06)
(-1.03557e-05 0 -7.1109e-06)
(-1.06832e-05 0 -1.02255e-05)
(-5.07345e-06 0 -2.37189e-05)
(1.46705e-05 0 -4.28795e-05)
(5.18096e-05 0 -4.51227e-05)
(5.81999e-05 0 3.89935e-05)
(1.7228e-05 0 6.24314e-05)
(-1.11266e-05 0 3.39512e-05)
(-1.32823e-05 0 1.99324e-05)
(-1.01994e-05 0 1.23001e-05)
(-8.44908e-06 0 7.28229e-06)
(-8.32411e-06 0 4.88053e-06)
(-9.75331e-06 0 4.32546e-06)
(-1.33914e-05 0 6.04583e-06)
(-2.14695e-05 0 1.38752e-05)
(-3.37868e-05 0 2.41668e-05)
(-4.38634e-05 0 2.14902e-05)
(-5.00049e-05 0 6.63966e-06)
(-5.94233e-05 0 -1.24847e-05)
(-6.86614e-05 0 -1.14095e-05)
(-7.53335e-05 0 -2.64275e-05)
(-7.65185e-05 0 -4.49429e-05)
(-6.55703e-05 0 -2.19936e-05)
(-4.95818e-05 0 -1.08128e-05)
(-3.48309e-05 0 -6.13886e-06)
(-2.2092e-05 0 -2.61484e-06)
(-1.26728e-05 0 2.79518e-06)
(-9.03656e-06 0 9.29027e-06)
(-1.01443e-05 0 1.10748e-05)
(-1.24246e-05 0 1.02425e-05)
(-1.64262e-05 0 1.04997e-05)
(-2.72321e-05 0 8.9249e-06)
(-4.0914e-05 0 1.98472e-05)
(-4.57815e-05 0 6.8384e-06)
(-4.86287e-05 0 -4.2656e-05)
(-4.78846e-05 0 -3.69334e-05)
(-3.54503e-05 0 -2.17311e-05)
(-2.18977e-05 0 -1.00072e-05)
(-1.34364e-05 0 -3.56132e-06)
(-9.44528e-06 0 -2.83261e-07)
(-7.92842e-06 0 2.08684e-06)
(-7.84809e-06 0 4.61831e-06)
(-9.2782e-06 0 6.98401e-06)
(-1.60938e-05 0 -3.8411e-07)
(-5.42462e-05 0 -3.99654e-05)
(-2.71277e-06 0 0.000252964)
(2.85324e-05 0 -8.75482e-05)
(-2.48394e-05 0 -1.51891e-05)
(-2.7002e-05 0 -1.26328e-05)
(-3.13624e-05 0 -1.56959e-05)
(-3.70753e-05 0 -1.8774e-05)
(-4.1162e-05 0 -1.89806e-05)
(-4.08812e-05 0 -1.45153e-05)
(-3.69724e-05 0 -7.78916e-06)
(-3.2418e-05 0 -2.77836e-06)
(-2.91816e-05 0 -1.14639e-06)
(-2.82176e-05 0 -2.19944e-06)
(-2.99901e-05 0 -4.16294e-06)
(-3.37983e-05 0 -5.58601e-06)
(-3.71851e-05 0 -4.78164e-06)
(-3.6535e-05 0 -2.64037e-06)
(-3.22582e-05 0 -2.97759e-06)
(-2.69753e-05 0 4.68176e-07)
(-2.23849e-05 0 3.14987e-07)
(-1.8901e-05 0 4.47217e-07)
(-1.40794e-05 0 2.82102e-06)
(-7.76901e-06 0 3.48238e-06)
(-3.13115e-06 0 1.7562e-06)
(-1.28557e-06 0 6.17812e-07)
(-8.13627e-07 0 3.82856e-07)
(-9.16526e-07 0 7.24695e-07)
(-2.27376e-06 0 2.69706e-06)
(-8.31393e-06 0 9.52132e-06)
(-2.29308e-05 0 1.11794e-05)
(-7.82372e-06 0 -0.000165671)
(6.93937e-05 0 -0.000140791)
(0.000101362 0 5.45703e-05)
(4.5638e-05 0 6.54683e-05)
(2.12041e-07 0 2.68192e-05)
(-1.42518e-05 0 1.65403e-05)
(-2.11881e-05 0 1.18721e-05)
(-2.43527e-05 0 6.32625e-06)
(-2.30076e-05 0 3.47636e-07)
(-1.82161e-05 0 -2.20648e-06)
(-1.3436e-05 0 -1.73284e-06)
(-9.7032e-06 0 -1.58026e-06)
(-7.54211e-06 0 1.233e-06)
(-9.0511e-06 0 6.20354e-06)
(-9.50013e-06 0 6.49735e-07)
(-6.68713e-06 0 -7.29101e-07)
(-4.58169e-06 0 -2.73814e-07)
(-3.43203e-06 0 1.23718e-07)
(-2.71686e-06 0 4.54241e-07)
(-2.28071e-06 0 8.99872e-07)
(-2.26059e-06 0 2.08115e-06)
(-3.69499e-06 0 6.72849e-06)
(-8.10218e-06 0 2.02564e-05)
(-1.07066e-05 0 2.97361e-05)
(-1.47473e-05 0 3.20571e-05)
(-2.3805e-05 0 1.60585e-05)
(-3.26751e-05 0 5.86343e-06)
(-4.04105e-05 0 1.90722e-07)
(-4.31699e-05 0 -2.65443e-06)
(-3.84448e-05 0 -4.79716e-07)
(-3.08306e-05 0 2.90784e-06)
(-2.57222e-05 0 5.27167e-06)
(-2.40254e-05 0 9.02029e-06)
(-2.32801e-05 0 1.47887e-05)
(-2.13662e-05 0 1.08484e-05)
(-2.76621e-05 0 -8.05196e-06)
(-4.33017e-05 0 -1.2297e-05)
(-5.56838e-05 0 -8.16878e-06)
(-5.9786e-05 0 3.17856e-06)
(-5.47994e-05 0 1.3154e-05)
(-4.36244e-05 0 1.42735e-05)
(-3.2897e-05 0 1.23782e-05)
(-2.56869e-05 0 1.38514e-05)
(-2.27169e-05 0 2.67859e-06)
(-2.60303e-05 0 -7.11056e-05)
(-3.40984e-05 0 -8.17605e-05)
(-1.35171e-05 0 -8.98686e-05)
(1.06917e-05 0 -1.10855e-05)
(5.50604e-06 0 7.73252e-06)
(-1.60051e-06 0 1.20852e-05)
(-5.01727e-06 0 1.03123e-05)
(-4.69079e-06 0 5.92875e-06)
(-3.39419e-06 0 3.12254e-06)
(-2.81724e-06 0 1.94648e-06)
(-2.96288e-06 0 1.55141e-06)
(-3.30262e-06 0 1.50196e-06)
(-3.46003e-06 0 1.38028e-06)
(-3.5038e-06 0 1.29842e-06)
(-3.63877e-06 0 1.33245e-06)
(-4.07539e-06 0 1.35372e-06)
(-4.85776e-06 0 8.55903e-07)
(-5.57691e-06 0 -3.27584e-07)
(-5.67065e-06 0 -1.12693e-06)
(-5.18611e-06 0 -1.06097e-06)
(-4.51814e-06 0 -1.78211e-07)
(-9.0869e-06 0 1.53999e-05)
(-1.32371e-05 0 4.39804e-05)
(-5.07449e-06 0 2.54568e-05)
(-4.74156e-06 0 -5.40446e-06)
(-2.86123e-05 0 -1.91276e-05)
(-6.73354e-05 0 -2.35276e-05)
(-5.99318e-05 0 4.18907e-05)
(-1.24445e-05 0 3.53103e-05)
(9.9288e-06 0 1.7002e-05)
(9.31822e-07 0 -6.65075e-05)
(-6.42563e-06 0 -1.29742e-05)
(-1.93009e-07 0 -2.94618e-06)
(-9.71888e-08 0 -6.26775e-07)
(-5.73848e-07 0 -1.59165e-07)
(-8.19207e-07 0 3.63708e-08)
(-7.91931e-07 0 1.31991e-07)
(-6.14503e-07 0 1.03624e-07)
(-4.77166e-07 0 -2.136e-09)
(-4.75292e-07 0 -1.77405e-07)
(-6.74922e-07 0 -6.1881e-07)
(-1.05621e-06 0 -1.83412e-06)
(-5.47701e-07 0 -4.50958e-06)
(6.57742e-07 0 -4.0466e-06)
(5.67532e-07 0 -2.50275e-06)
(-2.72928e-06 0 2.19403e-07)
(-4.18823e-06 0 1.87013e-08)
(1.27208e-07 0 -1.7542e-06)
(3.46135e-06 0 -1.10558e-05)
(8.48095e-06 0 -2.28484e-05)
(3.96909e-05 0 -4.67335e-05)
(0.000107809 0 -1.27903e-05)
(0.000124213 0 6.67563e-05)
(-1.1996e-05 0 0.000144829)
(-0.000172381 0 7.73396e-05)
(-0.00022282 0 4.99685e-05)
(-0.000212697 0 -5.40144e-05)
(-0.000290196 0 -0.000394506)
(-0.00024871 0 0.000289821)
(-5.30308e-05 0 0.000113468)
(2.44591e-05 0 6.06825e-06)
(2.46353e-05 0 -3.00322e-05)
(-2.05031e-05 0 -6.66883e-05)
(-1.94451e-05 0 2.83631e-05)
(1.8066e-06 0 9.13079e-05)
(-2.80688e-05 0 2.81653e-05)
(-3.47323e-05 0 -2.21167e-05)
(-1.84603e-05 0 -1.31301e-05)
(-1.1894e-05 0 -2.35339e-06)
(-1.21977e-05 0 8.18101e-07)
(-1.25457e-05 0 5.14036e-07)
(-1.08638e-05 0 -1.44162e-06)
(-7.9667e-06 0 -3.23678e-06)
(-5.44439e-06 0 -4.24011e-06)
(-3.74269e-06 0 -5.57663e-06)
(-2.47412e-06 0 -8.50477e-06)
(-1.61168e-06 0 -1.09472e-05)
(-1.66741e-06 0 -9.00465e-06)
(-2.40961e-06 0 -4.85789e-06)
(-3.27787e-06 0 -2.86754e-06)
(-4.547e-06 0 -2.84314e-06)
(-7.14721e-06 0 -3.50819e-06)
(-1.33359e-05 0 -2.37367e-06)
(-2.36456e-05 0 -4.49952e-06)
(-9.76993e-06 0 -4.90822e-05)
(4.47513e-05 0 -9.18995e-05)
(0.000123777 0 -0.000112413)
(0.000112208 0 0.000110934)
(2.59634e-05 0 0.000116403)
(-5.84941e-06 0 3.85113e-05)
(-9.63588e-06 0 2.00439e-05)
(-1.83949e-05 0 1.72171e-05)
(-3.41221e-05 0 1.61474e-05)
(-5.77146e-05 0 1.95616e-05)
(-8.91191e-05 0 2.28069e-05)
(-0.000119524 0 2.20234e-05)
(-0.0001377 0 2.41527e-05)
(-0.000137601 0 2.52763e-05)
(-0.000124351 0 1.58754e-05)
(-0.00011277 0 5.68264e-06)
(-0.000111895 0 -3.61627e-06)
(-0.000117378 0 -5.47826e-06)
(-0.000126858 0 -1.58933e-05)
(-0.000145996 0 -3.52086e-05)
(-0.000159213 0 -2.99067e-05)
(-0.000151953 0 -2.68163e-05)
(-0.000130292 0 -2.71129e-05)
(-9.80205e-05 0 -2.71423e-05)
(-6.81582e-05 0 -1.25762e-05)
(-7.10481e-05 0 2.29412e-05)
(-9.77993e-05 0 2.39971e-05)
(-0.000107405 0 7.74646e-06)
(-0.000105463 0 1.34089e-05)
(-0.000107146 0 1.65376e-05)
(-9.64857e-05 0 1.30773e-05)
(-7.27521e-05 0 -7.1621e-06)
(-6.35499e-05 0 -3.63576e-05)
(-6.72221e-05 0 -4.11997e-05)
(-6.0742e-05 0 -3.70052e-05)
(-4.41684e-05 0 -2.53029e-05)
(-2.86729e-05 0 -1.24965e-05)
(-2.02784e-05 0 -3.89252e-06)
(-1.78303e-05 0 1.6387e-06)
(-1.90287e-05 0 6.1218e-06)
(-2.24672e-05 0 1.02888e-05)
(-3.03307e-05 0 1.08926e-05)
(-5.10567e-05 0 7.4564e-06)
(-1.06005e-05 0 0.000113281)
(2.14808e-05 0 -1.14805e-05)
(-9.28173e-06 0 -7.36335e-06)
(-1.90421e-05 0 -8.75322e-06)
(-2.27316e-05 0 -1.17627e-05)
(-2.46236e-05 0 -1.54011e-05)
(-2.45368e-05 0 -1.87085e-05)
(-2.16508e-05 0 -1.83023e-05)
(-1.69074e-05 0 -1.29323e-05)
(-1.26793e-05 0 -6.6134e-06)
(-1.03117e-05 0 -3.06292e-06)
(-9.63119e-06 0 -2.0596e-06)
(-1.01336e-05 0 -2.17851e-06)
(-1.15011e-05 0 -2.6114e-06)
(-1.32586e-05 0 -2.97056e-06)
(-1.4589e-05 0 -4.33703e-06)
(-1.58962e-05 0 -4.91849e-06)
(-1.70432e-05 0 -2.34501e-06)
(-1.66393e-05 0 -2.28148e-06)
(-1.379e-05 0 -3.4507e-06)
(-8.63359e-06 0 -3.21251e-06)
(-3.86257e-06 0 -1.44484e-06)
(-1.52947e-06 0 -2.33228e-07)
(-8.4308e-07 0 9.48189e-08)
(-7.55434e-07 0 3.48874e-07)
(-1.325e-06 0 1.42463e-06)
(-5.70451e-06 0 7.71253e-06)
(-2.00363e-05 0 2.48261e-05)
(-2.09652e-05 0 1.12917e-05)
(4.36618e-05 0 -0.00024577)
(0.000195839 0 -0.000290519)
(0.00021767 0 0.000150195)
(4.67915e-05 0 0.000196732)
(-6.73711e-05 0 5.61254e-05)
(-8.75005e-05 0 2.36187e-05)
(-8.59277e-05 0 1.32983e-05)
(-7.83316e-05 0 5.25755e-06)
(-6.89527e-05 0 -3.89268e-06)
(-5.70992e-05 0 -1.01883e-05)
(-4.24361e-05 0 -9.84597e-06)
(-2.6345e-05 0 -1.035e-05)
(-1.34137e-05 0 -2.11994e-06)
(-9.75506e-06 0 1.00784e-05)
(-9.16808e-06 0 -1.78666e-06)
(-6.15176e-06 0 -3.49618e-06)
(-3.99192e-06 0 -1.58793e-06)
(-3.03669e-06 0 -5.99881e-07)
(-2.52605e-06 0 -1.88417e-08)
(-2.20552e-06 0 6.59045e-07)
(-2.29018e-06 0 2.49533e-06)
(-5.35649e-06 0 1.11718e-05)
(-1.27589e-05 0 2.87304e-05)
(-1.00764e-05 0 2.34437e-05)
(-1.10333e-05 0 4.60813e-05)
(-2.58954e-05 0 2.82259e-05)
(-3.68099e-05 0 1.51498e-05)
(-4.1466e-05 0 4.56978e-06)
(-3.87031e-05 0 -6.25215e-06)
(-3.09573e-05 0 -8.94325e-06)
(-2.36204e-05 0 -3.31536e-06)
(-2.03206e-05 0 3.05186e-06)
(-1.98631e-05 0 8.55833e-06)
(-1.70207e-05 0 1.08017e-05)
(-1.09793e-05 0 6.32888e-06)
(-8.38061e-06 0 1.32796e-07)
(-1.09231e-05 0 -2.06617e-06)
(-1.49176e-05 0 -2.13083e-06)
(-1.60273e-05 0 1.30196e-06)
(-1.2165e-05 0 4.49529e-06)
(-7.32192e-06 0 5.39752e-06)
(-5.41882e-06 0 7.52055e-06)
(-8.25339e-06 0 1.33096e-05)
(-1.92528e-05 0 9.87874e-06)
(-2.10174e-05 0 -7.50988e-05)
(-2.7168e-05 0 -6.53466e-05)
(-3.67976e-06 0 -0.000151541)
(2.65824e-05 0 -4.6158e-06)
(1.13619e-05 0 2.10497e-05)
(-4.43068e-07 0 1.70683e-05)
(-2.0881e-06 0 9.85786e-06)
(-9.048e-07 0 4.49713e-06)
(-2.50509e-07 0 2.3534e-06)
(-5.55931e-08 0 1.77873e-06)
(-1.14135e-08 0 1.7258e-06)
(-5.05671e-08 0 1.66394e-06)
(-1.38536e-07 0 1.45748e-06)
(-2.53194e-07 0 1.36791e-06)
(-4.48382e-07 0 1.57208e-06)
(-9.1463e-07 0 1.97367e-06)
(-2.02406e-06 0 2.0338e-06)
(-4.22404e-06 0 1.2393e-06)
(-7.5007e-06 0 4.82244e-07)
(-1.07782e-05 0 7.97788e-08)
(-1.2376e-05 0 4.54204e-08)
(-1.43723e-05 0 2.26843e-05)
(-1.03611e-05 0 3.78186e-05)
(-2.13017e-06 0 1.59389e-05)
(-1.39713e-06 0 3.56485e-06)
(-5.62125e-06 0 5.20258e-07)
(-1.05138e-05 0 1.06197e-06)
(-9.09743e-06 0 9.15513e-06)
(2.34161e-07 0 1.18593e-05)
(9.11837e-06 0 9.8237e-06)
(-8.00376e-06 0 -3.22338e-05)
(-2.00122e-05 0 -2.62737e-05)
(-6.46883e-06 0 -7.82945e-06)
(-8.69904e-07 0 -5.77485e-07)
(-3.63824e-07 0 5.28878e-08)
(-2.84467e-07 0 5.85647e-08)
(-2.12855e-07 0 2.69896e-08)
(-1.72205e-07 0 -3.65335e-09)
(-1.70231e-07 0 -3.23013e-08)
(-2.48806e-07 0 -6.58492e-08)
(-6.19998e-07 0 -1.37122e-07)
(-1.67852e-06 0 -8.13304e-07)
(1.14288e-07 0 -7.69149e-06)
(3.35418e-06 0 -5.10712e-06)
(2.02248e-06 0 1.62603e-07)
(-1.64201e-06 0 4.88146e-06)
(-2.75341e-06 0 -1.47523e-06)
(-2.25699e-06 0 -4.46003e-06)
(-3.64955e-06 0 -9.63667e-06)
(-1.00266e-05 0 -2.20391e-05)
(-3.78417e-05 0 -4.94315e-05)