/*--------------------------------*- C++ -*----------------------------------*\
  =========                 |
  \\      /  F ield         | OpenFOAM: The Open Source CFD Toolbox
   \\    /   O peration     | Website:  https://openfoam.org
    \\  /    A nd           | Version:  8
     \\/     M anipulation  |
\*---------------------------------------------------------------------------*/
FoamFile
{
    version     2.0;
    format      ascii;
    class       volSymmTensorField;
    location    "0";
    object      K;
}
// * * * * * * * * * * * * * * * * * * * * * * * * * * * * * * * * * * * * * //

dimensions      [0 2 0 0 0 0 0];

internalField   nonuniform List<symmTensor> 
20000
(
(2.88856e-09 0 0 2.88856e-09 0 2.88856e-09)
(5.34973e-09 0 0 5.34973e-09 0 5.34973e-09)
(9.49646e-09 0 0 9.49646e-09 0 9.49646e-09)
(1.2457e-08 0 0 1.2457e-08 0 1.2457e-08)
(9.46076e-09 0 0 9.46076e-09 0 9.46076e-09)
(4.25041e-09 0 0 4.25041e-09 0 4.25041e-09)
(1.56487e-09 0 0 1.56487e-09 0 1.56487e-09)
(6.96309e-10 0 0 6.96309e-10 0 6.96309e-10)
(4.48541e-10 0 0 4.48541e-10 0 4.48541e-10)
(3.99881e-10 0 0 3.99881e-10 0 3.99881e-10)
(4.64591e-10 0 0 4.64591e-10 0 4.64591e-10)
(7.5101e-10 0 0 7.5101e-10 0 7.5101e-10)
(1.79874e-09 0 0 1.79874e-09 0 1.79874e-09)
(5.32699e-09 0 0 5.32699e-09 0 5.32699e-09)
(1.24666e-08 0 0 1.24666e-08 0 1.24666e-08)
(1.51404e-08 0 0 1.51404e-08 0 1.51404e-08)
(8.98644e-09 0 0 8.98644e-09 0 8.98644e-09)
(3.59773e-09 0 0 3.59773e-09 0 3.59773e-09)
(1.43862e-09 0 0 1.43862e-09 0 1.43862e-09)
(6.69411e-10 0 0 6.69411e-10 0 6.69411e-10)
(3.34163e-10 0 0 3.34163e-10 0 3.34163e-10)
(1.70638e-10 0 0 1.70638e-10 0 1.70638e-10)
(1.06038e-10 0 0 1.06038e-10 0 1.06038e-10)
(1.05264e-10 0 0 1.05264e-10 0 1.05264e-10)
(1.79902e-10 0 0 1.79902e-10 0 1.79902e-10)
(4.10026e-10 0 0 4.10026e-10 0 4.10026e-10)
(8.31699e-10 0 0 8.31699e-10 0 8.31699e-10)
(1.17398e-09 0 0 1.17398e-09 0 1.17398e-09)
(1.20401e-09 0 0 1.20401e-09 0 1.20401e-09)
(1.09069e-09 0 0 1.09069e-09 0 1.09069e-09)
(9.94001e-10 0 0 9.94001e-10 0 9.94001e-10)
(9.08774e-10 0 0 9.08774e-10 0 9.08774e-10)
(8.11452e-10 0 0 8.11452e-10 0 8.11452e-10)
(7.57223e-10 0 0 7.57223e-10 0 7.57223e-10)
(8.50206e-10 0 0 8.50206e-10 0 8.50206e-10)
(1.24205e-09 0 0 1.24205e-09 0 1.24205e-09)
(2.16e-09 0 0 2.16e-09 0 2.16e-09)
(3.55626e-09 0 0 3.55626e-09 0 3.55626e-09)
(4.36731e-09 0 0 4.36731e-09 0 4.36731e-09)
(3.58367e-09 0 0 3.58367e-09 0 3.58367e-09)
(2.14746e-09 0 0 2.14746e-09 0 2.14746e-09)
(1.22212e-09 0 0 1.22212e-09 0 1.22212e-09)
(9.0321e-10 0 0 9.0321e-10 0 9.0321e-10)
(1.03201e-09 0 0 1.03201e-09 0 1.03201e-09)
(1.62666e-09 0 0 1.62666e-09 0 1.62666e-09)
(2.4238e-09 0 0 2.4238e-09 0 2.4238e-09)
(2.27433e-09 0 0 2.27433e-09 0 2.27433e-09)
(1.16946e-09 0 0 1.16946e-09 0 1.16946e-09)
(4.18027e-10 0 0 4.18027e-10 0 4.18027e-10)
(1.59931e-10 0 0 1.59931e-10 0 1.59931e-10)
(8.94665e-11 0 0 8.94665e-11 0 8.94665e-11)
(7.60843e-11 0 0 7.60843e-11 0 7.60843e-11)
(8.8153e-11 0 0 8.8153e-11 0 8.8153e-11)
(1.33722e-10 0 0 1.33722e-10 0 1.33722e-10)
(2.81948e-10 0 0 2.81948e-10 0 2.81948e-10)
(7.88324e-10 0 0 7.88324e-10 0 7.88324e-10)
(2.1e-09 0 0 2.1e-09 0 2.1e-09)
(3.31098e-09 0 0 3.31098e-09 0 3.31098e-09)
(2.47453e-09 0 0 2.47453e-09 0 2.47453e-09)
(1.18559e-09 0 0 1.18559e-09 0 1.18559e-09)
(6.9085e-10 0 0 6.9085e-10 0 6.9085e-10)
(7.73806e-10 0 0 7.73806e-10 0 7.73806e-10)
(1.50932e-09 0 0 1.50932e-09 0 1.50932e-09)
(3.03139e-09 0 0 3.03139e-09 0 3.03139e-09)
(3.94269e-09 0 0 3.94269e-09 0 3.94269e-09)
(3.17131e-09 0 0 3.17131e-09 0 3.17131e-09)
(2.09371e-09 0 0 2.09371e-09 0 2.09371e-09)
(1.46428e-09 0 0 1.46428e-09 0 1.46428e-09)
(1.11497e-09 0 0 1.11497e-09 0 1.11497e-09)
(8.64489e-10 0 0 8.64489e-10 0 8.64489e-10)
(7.2301e-10 0 0 7.2301e-10 0 7.2301e-10)
(7.63427e-10 0 0 7.63427e-10 0 7.63427e-10)
(1.026e-09 0 0 1.026e-09 0 1.026e-09)
(1.34859e-09 0 0 1.34859e-09 0 1.34859e-09)
(1.28184e-09 0 0 1.28184e-09 0 1.28184e-09)
(9.01917e-10 0 0 9.01917e-10 0 9.01917e-10)
(6.97391e-10 0 0 6.97391e-10 0 6.97391e-10)
(8.58717e-10 0 0 8.58717e-10 0 8.58717e-10)
(1.54209e-09 0 0 1.54209e-09 0 1.54209e-09)
(2.41248e-09 0 0 2.41248e-09 0 2.41248e-09)
(2.13277e-09 0 0 2.13277e-09 0 2.13277e-09)
(1.17956e-09 0 0 1.17956e-09 0 1.17956e-09)
(6.93677e-10 0 0 6.93677e-10 0 6.93677e-10)
(6.50506e-10 0 0 6.50506e-10 0 6.50506e-10)
(8.69577e-10 0 0 8.69577e-10 0 8.69577e-10)
(1.0719e-09 0 0 1.0719e-09 0 1.0719e-09)
(9.75118e-10 0 0 9.75118e-10 0 9.75118e-10)
(8.31189e-10 0 0 8.31189e-10 0 8.31189e-10)
(9.62311e-10 0 0 9.62311e-10 0 9.62311e-10)
(1.48963e-09 0 0 1.48963e-09 0 1.48963e-09)
(1.88766e-09 0 0 1.88766e-09 0 1.88766e-09)
(1.21197e-09 0 0 1.21197e-09 0 1.21197e-09)
(4.27159e-10 0 0 4.27159e-10 0 4.27159e-10)
(1.58576e-10 0 0 1.58576e-10 0 1.58576e-10)
(1.20518e-10 0 0 1.20518e-10 0 1.20518e-10)
(2.09389e-10 0 0 2.09389e-10 0 2.09389e-10)
(5.1812e-10 0 0 5.1812e-10 0 5.1812e-10)
(1.02745e-09 0 0 1.02745e-09 0 1.02745e-09)
(1.33321e-09 0 0 1.33321e-09 0 1.33321e-09)
(1.38402e-09 0 0 1.38402e-09 0 1.38402e-09)
(1.49156e-09 0 0 1.49156e-09 0 1.49156e-09)
(1.6982e-09 0 0 1.6982e-09 0 1.6982e-09)
(1.6764e-09 0 0 1.6764e-09 0 1.6764e-09)
(1.22748e-09 0 0 1.22748e-09 0 1.22748e-09)
(7.10232e-10 0 0 7.10232e-10 0 7.10232e-10)
(4.06237e-10 0 0 4.06237e-10 0 4.06237e-10)
(2.81286e-10 0 0 2.81286e-10 0 2.81286e-10)
(2.5486e-10 0 0 2.5486e-10 0 2.5486e-10)
(2.98664e-10 0 0 2.98664e-10 0 2.98664e-10)
(4.39836e-10 0 0 4.39836e-10 0 4.39836e-10)
(7.79753e-10 0 0 7.79753e-10 0 7.79753e-10)
(1.49119e-09 0 0 1.49119e-09 0 1.49119e-09)
(2.55174e-09 0 0 2.55174e-09 0 2.55174e-09)
(3.26911e-09 0 0 3.26911e-09 0 3.26911e-09)
(3.00352e-09 0 0 3.00352e-09 0 3.00352e-09)
(2.28807e-09 0 0 2.28807e-09 0 2.28807e-09)
(1.84799e-09 0 0 1.84799e-09 0 1.84799e-09)
(1.8684e-09 0 0 1.8684e-09 0 1.8684e-09)
(2.24837e-09 0 0 2.24837e-09 0 2.24837e-09)
(2.5398e-09 0 0 2.5398e-09 0 2.5398e-09)
(2.14093e-09 0 0 2.14093e-09 0 2.14093e-09)
(1.33093e-09 0 0 1.33093e-09 0 1.33093e-09)
(7.77457e-10 0 0 7.77457e-10 0 7.77457e-10)
(5.80374e-10 0 0 5.80374e-10 0 5.80374e-10)
(6.21747e-10 0 0 6.21747e-10 0 6.21747e-10)
(8.12254e-10 0 0 8.12254e-10 0 8.12254e-10)
(9.86098e-10 0 0 9.86098e-10 0 9.86098e-10)
(9.92494e-10 0 0 9.92494e-10 0 9.92494e-10)
(9.62247e-10 0 0 9.62247e-10 0 9.62247e-10)
(1.16912e-09 0 0 1.16912e-09 0 1.16912e-09)
(2.0086e-09 0 0 2.0086e-09 0 2.0086e-09)
(4.23855e-09 0 0 4.23855e-09 0 4.23855e-09)
(8.16596e-09 0 0 8.16596e-09 0 8.16596e-09)
(1.12578e-08 0 0 1.12578e-08 0 1.12578e-08)
(1.04699e-08 0 0 1.04699e-08 0 1.04699e-08)
(7.36484e-09 0 0 7.36484e-09 0 7.36484e-09)
(4.75476e-09 0 0 4.75476e-09 0 4.75476e-09)
(3.34315e-09 0 0 3.34315e-09 0 3.34315e-09)
(2.74077e-09 0 0 2.74077e-09 0 2.74077e-09)
(2.43059e-09 0 0 2.43059e-09 0 2.43059e-09)
(1.96371e-09 0 0 1.96371e-09 0 1.96371e-09)
(1.27671e-09 0 0 1.27671e-09 0 1.27671e-09)
(7.13134e-10 0 0 7.13134e-10 0 7.13134e-10)
(4.34827e-10 0 0 4.34827e-10 0 4.34827e-10)
(3.57411e-10 0 0 3.57411e-10 0 3.57411e-10)
(3.84783e-10 0 0 3.84783e-10 0 3.84783e-10)
(4.17995e-10 0 0 4.17995e-10 0 4.17995e-10)
(3.57802e-10 0 0 3.57802e-10 0 3.57802e-10)
(2.42794e-10 0 0 2.42794e-10 0 2.42794e-10)
(1.65443e-10 0 0 1.65443e-10 0 1.65443e-10)
(1.3867e-10 0 0 1.3867e-10 0 1.3867e-10)
(1.36731e-10 0 0 1.36731e-10 0 1.36731e-10)
(1.28293e-10 0 0 1.28293e-10 0 1.28293e-10)
(1.05126e-10 0 0 1.05126e-10 0 1.05126e-10)
(9.40655e-11 0 0 9.40655e-11 0 9.40655e-11)
(1.35253e-10 0 0 1.35253e-10 0 1.35253e-10)
(3.79223e-10 0 0 3.79223e-10 0 3.79223e-10)
(1.64293e-09 0 0 1.64293e-09 0 1.64293e-09)
(6.29599e-09 0 0 6.29599e-09 0 6.29599e-09)
(1.24831e-08 0 0 1.24831e-08 0 1.24831e-08)
(1.05643e-08 0 0 1.05643e-08 0 1.05643e-08)
(4.86467e-09 0 0 4.86467e-09 0 4.86467e-09)
(2.04562e-09 0 0 2.04562e-09 0 2.04562e-09)
(1.29187e-09 0 0 1.29187e-09 0 1.29187e-09)
(1.50462e-09 0 0 1.50462e-09 0 1.50462e-09)
(2.67158e-09 0 0 2.67158e-09 0 2.67158e-09)
(4.63722e-09 0 0 4.63722e-09 0 4.63722e-09)
(5.37605e-09 0 0 5.37605e-09 0 5.37605e-09)
(3.96072e-09 0 0 3.96072e-09 0 3.96072e-09)
(2.44028e-09 0 0 2.44028e-09 0 2.44028e-09)
(1.72408e-09 0 0 1.72408e-09 0 1.72408e-09)
(1.4832e-09 0 0 1.4832e-09 0 1.4832e-09)
(1.25095e-09 0 0 1.25095e-09 0 1.25095e-09)
(8.27525e-10 0 0 8.27525e-10 0 8.27525e-10)
(4.50236e-10 0 0 4.50236e-10 0 4.50236e-10)
(2.75068e-10 0 0 2.75068e-10 0 2.75068e-10)
(2.53105e-10 0 0 2.53105e-10 0 2.53105e-10)
(3.52792e-10 0 0 3.52792e-10 0 3.52792e-10)
(5.57784e-10 0 0 5.57784e-10 0 5.57784e-10)
(6.995e-10 0 0 6.995e-10 0 6.995e-10)
(5.70809e-10 0 0 5.70809e-10 0 5.70809e-10)
(3.1155e-10 0 0 3.1155e-10 0 3.1155e-10)
(1.38019e-10 0 0 1.38019e-10 0 1.38019e-10)
(6.62125e-11 0 0 6.62125e-11 0 6.62125e-11)
(4.73482e-11 0 0 4.73482e-11 0 4.73482e-11)
(6.39076e-11 0 0 6.39076e-11 0 6.39076e-11)
(1.63565e-10 0 0 1.63565e-10 0 1.63565e-10)
(6.04546e-10 0 0 6.04546e-10 0 6.04546e-10)
(2.16423e-09 0 0 2.16423e-09 0 2.16423e-09)
(5.63553e-09 0 0 5.63553e-09 0 5.63553e-09)
(1.00145e-08 0 0 1.00145e-08 0 1.00145e-08)
(1.28072e-08 0 0 1.28072e-08 0 1.28072e-08)
(1.18716e-08 0 0 1.18716e-08 0 1.18716e-08)
(7.62117e-09 0 0 7.62117e-09 0 7.62117e-09)
(3.57643e-09 0 0 3.57643e-09 0 3.57643e-09)
(1.5767e-09 0 0 1.5767e-09 0 1.5767e-09)
(9.07182e-10 0 0 9.07182e-10 0 9.07182e-10)
(8.11949e-10 0 0 8.11949e-10 0 8.11949e-10)
(1.05474e-09 0 0 1.05474e-09 0 1.05474e-09)
(1.66615e-09 0 0 1.66615e-09 0 1.66615e-09)
(1.30292e-09 0 0 1.30292e-09 0 1.30292e-09)
(5.27599e-09 0 0 5.27599e-09 0 5.27599e-09)
(2.44428e-08 0 0 2.44428e-08 0 2.44428e-08)
(6.21623e-08 0 0 6.21623e-08 0 6.21623e-08)
(5.28646e-08 0 0 5.28646e-08 0 5.28646e-08)
(1.63153e-08 0 0 1.63153e-08 0 1.63153e-08)
(3.38619e-09 0 0 3.38619e-09 0 3.38619e-09)
(9.74128e-10 0 0 9.74128e-10 0 9.74128e-10)
(5.59312e-10 0 0 5.59312e-10 0 5.59312e-10)
(5.79705e-10 0 0 5.79705e-10 0 5.79705e-10)
(8.26793e-10 0 0 8.26793e-10 0 8.26793e-10)
(1.45759e-09 0 0 1.45759e-09 0 1.45759e-09)
(3.38305e-09 0 0 3.38305e-09 0 3.38305e-09)
(9.77472e-09 0 0 9.77472e-09 0 9.77472e-09)
(2.44495e-08 0 0 2.44495e-08 0 2.44495e-08)
(3.31922e-08 0 0 3.31922e-08 0 3.31922e-08)
(2.09629e-08 0 0 2.09629e-08 0 2.09629e-08)
(8.49476e-09 0 0 8.49476e-09 0 8.49476e-09)
(3.61651e-09 0 0 3.61651e-09 0 3.61651e-09)
(1.98235e-09 0 0 1.98235e-09 0 1.98235e-09)
(1.14001e-09 0 0 1.14001e-09 0 1.14001e-09)
(5.26941e-10 0 0 5.26941e-10 0 5.26941e-10)
(2.12147e-10 0 0 2.12147e-10 0 2.12147e-10)
(1.13963e-10 0 0 1.13963e-10 0 1.13963e-10)
(1.16764e-10 0 0 1.16764e-10 0 1.16764e-10)
(2.10008e-10 0 0 2.10008e-10 0 2.10008e-10)
(4.21452e-10 0 0 4.21452e-10 0 4.21452e-10)
(6.24847e-10 0 0 6.24847e-10 0 6.24847e-10)
(6.37994e-10 0 0 6.37994e-10 0 6.37994e-10)
(5.4245e-10 0 0 5.4245e-10 0 5.4245e-10)
(4.53599e-10 0 0 4.53599e-10 0 4.53599e-10)
(3.82196e-10 0 0 3.82196e-10 0 3.82196e-10)
(3.32956e-10 0 0 3.32956e-10 0 3.32956e-10)
(3.57784e-10 0 0 3.57784e-10 0 3.57784e-10)
(5.95803e-10 0 0 5.95803e-10 0 5.95803e-10)
(1.55821e-09 0 0 1.55821e-09 0 1.55821e-09)
(4.63738e-09 0 0 4.63738e-09 0 4.63738e-09)
(9.79424e-09 0 0 9.79424e-09 0 9.79424e-09)
(1.0786e-08 0 0 1.0786e-08 0 1.0786e-08)
(6.25341e-09 0 0 6.25341e-09 0 6.25341e-09)
(2.44706e-09 0 0 2.44706e-09 0 2.44706e-09)
(9.08144e-10 0 0 9.08144e-10 0 9.08144e-10)
(4.53963e-10 0 0 4.53963e-10 0 4.53963e-10)
(4.06406e-10 0 0 4.06406e-10 0 4.06406e-10)
(6.84019e-10 0 0 6.84019e-10 0 6.84019e-10)
(1.53414e-09 0 0 1.53414e-09 0 1.53414e-09)
(2.44575e-09 0 0 2.44575e-09 0 2.44575e-09)
(1.69956e-09 0 0 1.69956e-09 0 1.69956e-09)
(5.46711e-10 0 0 5.46711e-10 0 5.46711e-10)
(1.46437e-10 0 0 1.46437e-10 0 1.46437e-10)
(6.15973e-11 0 0 6.15973e-11 0 6.15973e-11)
(4.97534e-11 0 0 4.97534e-11 0 4.97534e-11)
(6.04403e-11 0 0 6.04403e-11 0 6.04403e-11)
(8.41397e-11 0 0 8.41397e-11 0 8.41397e-11)
(1.39668e-10 0 0 1.39668e-10 0 1.39668e-10)
(3.42968e-10 0 0 3.42968e-10 0 3.42968e-10)
(1.19624e-09 0 0 1.19624e-09 0 1.19624e-09)
(3.68101e-09 0 0 3.68101e-09 0 3.68101e-09)
(5.68836e-09 0 0 5.68836e-09 0 5.68836e-09)
(3.94473e-09 0 0 3.94473e-09 0 3.94473e-09)
(1.99021e-09 0 0 1.99021e-09 0 1.99021e-09)
(1.4079e-09 0 0 1.4079e-09 0 1.4079e-09)
(1.82498e-09 0 0 1.82498e-09 0 1.82498e-09)
(3.31695e-09 0 0 3.31695e-09 0 3.31695e-09)
(5.39499e-09 0 0 5.39499e-09 0 5.39499e-09)
(6.40969e-09 0 0 6.40969e-09 0 6.40969e-09)
(6.25546e-09 0 0 6.25546e-09 0 6.25546e-09)
(6.01654e-09 0 0 6.01654e-09 0 6.01654e-09)
(5.86681e-09 0 0 5.86681e-09 0 5.86681e-09)
(5.40036e-09 0 0 5.40036e-09 0 5.40036e-09)
(4.73422e-09 0 0 4.73422e-09 0 4.73422e-09)
(4.42007e-09 0 0 4.42007e-09 0 4.42007e-09)
(4.61859e-09 0 0 4.61859e-09 0 4.61859e-09)
(4.81076e-09 0 0 4.81076e-09 0 4.81076e-09)
(4.31586e-09 0 0 4.31586e-09 0 4.31586e-09)
(3.46143e-09 0 0 3.46143e-09 0 3.46143e-09)
(3.05022e-09 0 0 3.05022e-09 0 3.05022e-09)
(3.24127e-09 0 0 3.24127e-09 0 3.24127e-09)
(3.28062e-09 0 0 3.28062e-09 0 3.28062e-09)
(2.14282e-09 0 0 2.14282e-09 0 2.14282e-09)
(8.24282e-10 0 0 8.24282e-10 0 8.24282e-10)
(2.90135e-10 0 0 2.90135e-10 0 2.90135e-10)
(1.81393e-10 0 0 1.81393e-10 0 1.81393e-10)
(2.68044e-10 0 0 2.68044e-10 0 2.68044e-10)
(6.45434e-10 0 0 6.45434e-10 0 6.45434e-10)
(1.2894e-09 0 0 1.2894e-09 0 1.2894e-09)
(1.52277e-09 0 0 1.52277e-09 0 1.52277e-09)
(1.38012e-09 0 0 1.38012e-09 0 1.38012e-09)
(1.55878e-09 0 0 1.55878e-09 0 1.55878e-09)
(2.46094e-09 0 0 2.46094e-09 0 2.46094e-09)
(3.58682e-09 0 0 3.58682e-09 0 3.58682e-09)
(2.94298e-09 0 0 2.94298e-09 0 2.94298e-09)
(1.35386e-09 0 0 1.35386e-09 0 1.35386e-09)
(6.09818e-10 0 0 6.09818e-10 0 6.09818e-10)
(4.94143e-10 0 0 4.94143e-10 0 4.94143e-10)
(7.97058e-10 0 0 7.97058e-10 0 7.97058e-10)
(1.64722e-09 0 0 1.64722e-09 0 1.64722e-09)
(2.6694e-09 0 0 2.6694e-09 0 2.6694e-09)
(3.17431e-09 0 0 3.17431e-09 0 3.17431e-09)
(3.83456e-09 0 0 3.83456e-09 0 3.83456e-09)
(6.04323e-09 0 0 6.04323e-09 0 6.04323e-09)
(1.02395e-08 0 0 1.02395e-08 0 1.02395e-08)
(1.12883e-08 0 0 1.12883e-08 0 1.12883e-08)
(5.92738e-09 0 0 5.92738e-09 0 5.92738e-09)
(1.86336e-09 0 0 1.86336e-09 0 1.86336e-09)
(6.55945e-10 0 0 6.55945e-10 0 6.55945e-10)
(4.43613e-10 0 0 4.43613e-10 0 4.43613e-10)
(6.26501e-10 0 0 6.26501e-10 0 6.26501e-10)
(1.31901e-09 0 0 1.31901e-09 0 1.31901e-09)
(2.7023e-09 0 0 2.7023e-09 0 2.7023e-09)
(4.30573e-09 0 0 4.30573e-09 0 4.30573e-09)
(5.46318e-09 0 0 5.46318e-09 0 5.46318e-09)
(6.30949e-09 0 0 6.30949e-09 0 6.30949e-09)
(7.40162e-09 0 0 7.40162e-09 0 7.40162e-09)
(9.24951e-09 0 0 9.24951e-09 0 9.24951e-09)
(1.22638e-08 0 0 1.22638e-08 0 1.22638e-08)
(1.61933e-08 0 0 1.61933e-08 0 1.61933e-08)
(1.86379e-08 0 0 1.86379e-08 0 1.86379e-08)
(1.59992e-08 0 0 1.59992e-08 0 1.59992e-08)
(9.53951e-09 0 0 9.53951e-09 0 9.53951e-09)
(4.36451e-09 0 0 4.36451e-09 0 4.36451e-09)
(1.96673e-09 0 0 1.96673e-09 0 1.96673e-09)
(1.14548e-09 0 0 1.14548e-09 0 1.14548e-09)
(9.95878e-10 0 0 9.95878e-10 0 9.95878e-10)
(1.21887e-09 0 0 1.21887e-09 0 1.21887e-09)
(1.68861e-09 0 0 1.68861e-09 0 1.68861e-09)
(2.07767e-09 0 0 2.07767e-09 0 2.07767e-09)
(2.02576e-09 0 0 2.02576e-09 0 2.02576e-09)
(1.71826e-09 0 0 1.71826e-09 0 1.71826e-09)
(1.61267e-09 0 0 1.61267e-09 0 1.61267e-09)
(2.06399e-09 0 0 2.06399e-09 0 2.06399e-09)
(3.60674e-09 0 0 3.60674e-09 0 3.60674e-09)
(6.81352e-09 0 0 6.81352e-09 0 6.81352e-09)
(1.02586e-08 0 0 1.02586e-08 0 1.02586e-08)
(1.06315e-08 0 0 1.06315e-08 0 1.06315e-08)
(8.48978e-09 0 0 8.48978e-09 0 8.48978e-09)
(6.75617e-09 0 0 6.75617e-09 0 6.75617e-09)
(6.39154e-09 0 0 6.39154e-09 0 6.39154e-09)
(6.91338e-09 0 0 6.91338e-09 0 6.91338e-09)
(7.05722e-09 0 0 7.05722e-09 0 7.05722e-09)
(5.7654e-09 0 0 5.7654e-09 0 5.7654e-09)
(3.71881e-09 0 0 3.71881e-09 0 3.71881e-09)
(2.11683e-09 0 0 2.11683e-09 0 2.11683e-09)
(1.19469e-09 0 0 1.19469e-09 0 1.19469e-09)
(6.95761e-10 0 0 6.95761e-10 0 6.95761e-10)
(4.12948e-10 0 0 4.12948e-10 0 4.12948e-10)
(2.53764e-10 0 0 2.53764e-10 0 2.53764e-10)
(1.75008e-10 0 0 1.75008e-10 0 1.75008e-10)
(1.48235e-10 0 0 1.48235e-10 0 1.48235e-10)
(1.54582e-10 0 0 1.54582e-10 0 1.54582e-10)
(1.75145e-10 0 0 1.75145e-10 0 1.75145e-10)
(1.81155e-10 0 0 1.81155e-10 0 1.81155e-10)
(1.59971e-10 0 0 1.59971e-10 0 1.59971e-10)
(1.40171e-10 0 0 1.40171e-10 0 1.40171e-10)
(1.6697e-10 0 0 1.6697e-10 0 1.6697e-10)
(3.5152e-10 0 0 3.5152e-10 0 3.5152e-10)
(1.27442e-09 0 0 1.27442e-09 0 1.27442e-09)
(5.47377e-09 0 0 5.47377e-09 0 5.47377e-09)
(1.64497e-08 0 0 1.64497e-08 0 1.64497e-08)
(2.4244e-08 0 0 2.4244e-08 0 2.4244e-08)
(1.79574e-08 0 0 1.79574e-08 0 1.79574e-08)
(9.40724e-09 0 0 9.40724e-09 0 9.40724e-09)
(5.15933e-09 0 0 5.15933e-09 0 5.15933e-09)
(3.60256e-09 0 0 3.60256e-09 0 3.60256e-09)
(3.0469e-09 0 0 3.0469e-09 0 3.0469e-09)
(2.6734e-09 0 0 2.6734e-09 0 2.6734e-09)
(2.23718e-09 0 0 2.23718e-09 0 2.23718e-09)
(1.88824e-09 0 0 1.88824e-09 0 1.88824e-09)
(1.84333e-09 0 0 1.84333e-09 0 1.84333e-09)
(2.31058e-09 0 0 2.31058e-09 0 2.31058e-09)
(3.66256e-09 0 0 3.66256e-09 0 3.66256e-09)
(6.28031e-09 0 0 6.28031e-09 0 6.28031e-09)
(9.15492e-09 0 0 9.15492e-09 0 9.15492e-09)
(9.25852e-09 0 0 9.25852e-09 0 9.25852e-09)
(6.29525e-09 0 0 6.29525e-09 0 6.29525e-09)
(3.47262e-09 0 0 3.47262e-09 0 3.47262e-09)
(2.09555e-09 0 0 2.09555e-09 0 2.09555e-09)
(1.68275e-09 0 0 1.68275e-09 0 1.68275e-09)
(1.68311e-09 0 0 1.68311e-09 0 1.68311e-09)
(1.56781e-09 0 0 1.56781e-09 0 1.56781e-09)
(1.01113e-09 0 0 1.01113e-09 0 1.01113e-09)
(4.20619e-10 0 0 4.20619e-10 0 4.20619e-10)
(1.40886e-10 0 0 1.40886e-10 0 1.40886e-10)
(5.56095e-11 0 0 5.56095e-11 0 5.56095e-11)
(3.56558e-11 0 0 3.56558e-11 0 3.56558e-11)
(4.14097e-11 0 0 4.14097e-11 0 4.14097e-11)
(7.75868e-11 0 0 7.75868e-11 0 7.75868e-11)
(1.84288e-10 0 0 1.84288e-10 0 1.84288e-10)
(4.40379e-10 0 0 4.40379e-10 0 4.40379e-10)
(9.36816e-10 0 0 9.36816e-10 0 9.36816e-10)
(1.78162e-09 0 0 1.78162e-09 0 1.78162e-09)
(3.22519e-09 0 0 3.22519e-09 0 3.22519e-09)
(5.64303e-09 0 0 5.64303e-09 0 5.64303e-09)
(8.67503e-09 0 0 8.67503e-09 0 8.67503e-09)
(9.87431e-09 0 0 9.87431e-09 0 9.87431e-09)
(7.28614e-09 0 0 7.28614e-09 0 7.28614e-09)
(3.56225e-09 0 0 3.56225e-09 0 3.56225e-09)
(1.44468e-09 0 0 1.44468e-09 0 1.44468e-09)
(7.1171e-10 0 0 7.1171e-10 0 7.1171e-10)
(6.37618e-10 0 0 6.37618e-10 0 6.37618e-10)
(1.06545e-09 0 0 1.06545e-09 0 1.06545e-09)
(3.51893e-09 0 0 3.51893e-09 0 3.51893e-09)
(1.06585e-08 0 0 1.06585e-08 0 1.06585e-08)
(1.51077e-08 0 0 1.51077e-08 0 1.51077e-08)
(8.18314e-09 0 0 8.18314e-09 0 8.18314e-09)
(2.4333e-09 0 0 2.4333e-09 0 2.4333e-09)
(7.58423e-10 0 0 7.58423e-10 0 7.58423e-10)
(4.08443e-10 0 0 4.08443e-10 0 4.08443e-10)
(4.17452e-10 0 0 4.17452e-10 0 4.17452e-10)
(6.42573e-10 0 0 6.42573e-10 0 6.42573e-10)
(1.14867e-09 0 0 1.14867e-09 0 1.14867e-09)
(2.20526e-09 0 0 2.20526e-09 0 2.20526e-09)
(4.71974e-09 0 0 4.71974e-09 0 4.71974e-09)
(1.0421e-08 0 0 1.0421e-08 0 1.0421e-08)
(1.7833e-08 0 0 1.7833e-08 0 1.7833e-08)
(1.76343e-08 0 0 1.76343e-08 0 1.76343e-08)
(1.0153e-08 0 0 1.0153e-08 0 1.0153e-08)
(4.93485e-09 0 0 4.93485e-09 0 4.93485e-09)
(3.10126e-09 0 0 3.10126e-09 0 3.10126e-09)
(2.73542e-09 0 0 2.73542e-09 0 2.73542e-09)
(2.42676e-09 0 0 2.42676e-09 0 2.42676e-09)
(1.46275e-09 0 0 1.46275e-09 0 1.46275e-09)
(5.86257e-10 0 0 5.86257e-10 0 5.86257e-10)
(2.35034e-10 0 0 2.35034e-10 0 2.35034e-10)
(1.50335e-10 0 0 1.50335e-10 0 1.50335e-10)
(1.71258e-10 0 0 1.71258e-10 0 1.71258e-10)
(2.58799e-10 0 0 2.58799e-10 0 2.58799e-10)
(3.56236e-10 0 0 3.56236e-10 0 3.56236e-10)
(3.90219e-10 0 0 3.90219e-10 0 3.90219e-10)
(3.8193e-10 0 0 3.8193e-10 0 3.8193e-10)
(3.84245e-10 0 0 3.84245e-10 0 3.84245e-10)
(4.04806e-10 0 0 4.04806e-10 0 4.04806e-10)
(4.4088e-10 0 0 4.4088e-10 0 4.4088e-10)
(5.5214e-10 0 0 5.5214e-10 0 5.5214e-10)
(9.55862e-10 0 0 9.55862e-10 0 9.55862e-10)
(2.36922e-09 0 0 2.36922e-09 0 2.36922e-09)
(6.48818e-09 0 0 6.48818e-09 0 6.48818e-09)
(1.28944e-08 0 0 1.28944e-08 0 1.28944e-08)
(1.39842e-08 0 0 1.39842e-08 0 1.39842e-08)
(8.44914e-09 0 0 8.44914e-09 0 8.44914e-09)
(3.62425e-09 0 0 3.62425e-09 0 3.62425e-09)
(1.45336e-09 0 0 1.45336e-09 0 1.45336e-09)
(6.77275e-10 0 0 6.77275e-10 0 6.77275e-10)
(4.36105e-10 0 0 4.36105e-10 0 4.36105e-10)
(4.27176e-10 0 0 4.27176e-10 0 4.27176e-10)
(5.75852e-10 0 0 5.75852e-10 0 5.75852e-10)
(7.66709e-10 0 0 7.66709e-10 0 7.66709e-10)
(7.05158e-10 0 0 7.05158e-10 0 7.05158e-10)
(4.20497e-10 0 0 4.20497e-10 0 4.20497e-10)
(2.25486e-10 0 0 2.25486e-10 0 2.25486e-10)
(1.66915e-10 0 0 1.66915e-10 0 1.66915e-10)
(1.91462e-10 0 0 1.91462e-10 0 1.91462e-10)
(2.53427e-10 0 0 2.53427e-10 0 2.53427e-10)
(2.71204e-10 0 0 2.71204e-10 0 2.71204e-10)
(2.37851e-10 0 0 2.37851e-10 0 2.37851e-10)
(2.57681e-10 0 0 2.57681e-10 0 2.57681e-10)
(4.99458e-10 0 0 4.99458e-10 0 4.99458e-10)
(1.54123e-09 0 0 1.54123e-09 0 1.54123e-09)
(4.26758e-09 0 0 4.26758e-09 0 4.26758e-09)
(6.24393e-09 0 0 6.24393e-09 0 6.24393e-09)
(4.75002e-09 0 0 4.75002e-09 0 4.75002e-09)
(3.01527e-09 0 0 3.01527e-09 0 3.01527e-09)
(2.62023e-09 0 0 2.62023e-09 0 2.62023e-09)
(3.4148e-09 0 0 3.4148e-09 0 3.4148e-09)
(4.93834e-09 0 0 4.93834e-09 0 4.93834e-09)
(5.7356e-09 0 0 5.7356e-09 0 5.7356e-09)
(5.18418e-09 0 0 5.18418e-09 0 5.18418e-09)
(4.56667e-09 0 0 4.56667e-09 0 4.56667e-09)
(4.78504e-09 0 0 4.78504e-09 0 4.78504e-09)
(5.8061e-09 0 0 5.8061e-09 0 5.8061e-09)
(6.77549e-09 0 0 6.77549e-09 0 6.77549e-09)
(6.69729e-09 0 0 6.69729e-09 0 6.69729e-09)
(5.92123e-09 0 0 5.92123e-09 0 5.92123e-09)
(5.4873e-09 0 0 5.4873e-09 0 5.4873e-09)
(5.8435e-09 0 0 5.8435e-09 0 5.8435e-09)
(6.66476e-09 0 0 6.66476e-09 0 6.66476e-09)
(6.74122e-09 0 0 6.74122e-09 0 6.74122e-09)
(5.04854e-09 0 0 5.04854e-09 0 5.04854e-09)
(2.65786e-09 0 0 2.65786e-09 0 2.65786e-09)
(1.12443e-09 0 0 1.12443e-09 0 1.12443e-09)
(5.07075e-10 0 0 5.07075e-10 0 5.07075e-10)
(3.26917e-10 0 0 3.26917e-10 0 3.26917e-10)
(3.40851e-10 0 0 3.40851e-10 0 3.40851e-10)
(5.00021e-10 0 0 5.00021e-10 0 5.00021e-10)
(7.68428e-10 0 0 7.68428e-10 0 7.68428e-10)
(1.01478e-09 0 0 1.01478e-09 0 1.01478e-09)
(1.24098e-09 0 0 1.24098e-09 0 1.24098e-09)
(1.80863e-09 0 0 1.80863e-09 0 1.80863e-09)
(3.55195e-09 0 0 3.55195e-09 0 3.55195e-09)
(7.53648e-09 0 0 7.53648e-09 0 7.53648e-09)
(1.12578e-08 0 0 1.12578e-08 0 1.12578e-08)
(9.36851e-09 0 0 9.36851e-09 0 9.36851e-09)
(5.49398e-09 0 0 5.49398e-09 0 5.49398e-09)
(3.88408e-09 0 0 3.88408e-09 0 3.88408e-09)
(4.6763e-09 0 0 4.6763e-09 0 4.6763e-09)
(7.93691e-09 0 0 7.93691e-09 0 7.93691e-09)
(1.09912e-08 0 0 1.09912e-08 0 1.09912e-08)
(8.75973e-09 0 0 8.75973e-09 0 8.75973e-09)
(5.08545e-09 0 0 5.08545e-09 0 5.08545e-09)
(4.01064e-09 0 0 4.01064e-09 0 4.01064e-09)
(6.32462e-09 0 0 6.32462e-09 0 6.32462e-09)
(1.48158e-08 0 0 1.48158e-08 0 1.48158e-08)
(2.34526e-08 0 0 2.34526e-08 0 2.34526e-08)
(1.39181e-08 0 0 1.39181e-08 0 1.39181e-08)
(3.66245e-09 0 0 3.66245e-09 0 3.66245e-09)
(9.88658e-10 0 0 9.88658e-10 0 9.88658e-10)
(6.44632e-10 0 0 6.44632e-10 0 6.44632e-10)
(1.2728e-09 0 0 1.2728e-09 0 1.2728e-09)
(4.52824e-09 0 0 4.52824e-09 0 4.52824e-09)
(1.2849e-08 0 0 1.2849e-08 0 1.2849e-08)
(1.72629e-08 0 0 1.72629e-08 0 1.72629e-08)
(1.1482e-08 0 0 1.1482e-08 0 1.1482e-08)
(5.90607e-09 0 0 5.90607e-09 0 5.90607e-09)
(3.76508e-09 0 0 3.76508e-09 0 3.76508e-09)
(3.68549e-09 0 0 3.68549e-09 0 3.68549e-09)
(5.04913e-09 0 0 5.04913e-09 0 5.04913e-09)
(7.38851e-09 0 0 7.38851e-09 0 7.38851e-09)
(8.81566e-09 0 0 8.81566e-09 0 8.81566e-09)
(7.4445e-09 0 0 7.4445e-09 0 7.4445e-09)
(4.56328e-09 0 0 4.56328e-09 0 4.56328e-09)
(2.34964e-09 0 0 2.34964e-09 0 2.34964e-09)
(1.21468e-09 0 0 1.21468e-09 0 1.21468e-09)
(7.25457e-10 0 0 7.25457e-10 0 7.25457e-10)
(5.4502e-10 0 0 5.4502e-10 0 5.4502e-10)
(5.38393e-10 0 0 5.38393e-10 0 5.38393e-10)
(7.00054e-10 0 0 7.00054e-10 0 7.00054e-10)
(1.11674e-09 0 0 1.11674e-09 0 1.11674e-09)
(1.88817e-09 0 0 1.88817e-09 0 1.88817e-09)
(2.88838e-09 0 0 2.88838e-09 0 2.88838e-09)
(3.72281e-09 0 0 3.72281e-09 0 3.72281e-09)
(4.27944e-09 0 0 4.27944e-09 0 4.27944e-09)
(4.92482e-09 0 0 4.92482e-09 0 4.92482e-09)
(5.98549e-09 0 0 5.98549e-09 0 5.98549e-09)
(7.21179e-09 0 0 7.21179e-09 0 7.21179e-09)
(7.67604e-09 0 0 7.67604e-09 0 7.67604e-09)
(6.85627e-09 0 0 6.85627e-09 0 6.85627e-09)
(5.48079e-09 0 0 5.48079e-09 0 5.48079e-09)
(4.43093e-09 0 0 4.43093e-09 0 4.43093e-09)
(3.90221e-09 0 0 3.90221e-09 0 3.90221e-09)
(3.62447e-09 0 0 3.62447e-09 0 3.62447e-09)
(3.17573e-09 0 0 3.17573e-09 0 3.17573e-09)
(2.34725e-09 0 0 2.34725e-09 0 2.34725e-09)
(1.40582e-09 0 0 1.40582e-09 0 1.40582e-09)
(7.23846e-10 0 0 7.23846e-10 0 7.23846e-10)
(3.66594e-10 0 0 3.66594e-10 0 3.66594e-10)
(2.11739e-10 0 0 2.11739e-10 0 2.11739e-10)
(1.53262e-10 0 0 1.53262e-10 0 1.53262e-10)
(1.40781e-10 0 0 1.40781e-10 0 1.40781e-10)
(1.57695e-10 0 0 1.57695e-10 0 1.57695e-10)
(2.06983e-10 0 0 2.06983e-10 0 2.06983e-10)
(3.11742e-10 0 0 3.11742e-10 0 3.11742e-10)
(5.23228e-10 0 0 5.23228e-10 0 5.23228e-10)
(9.22171e-10 0 0 9.22171e-10 0 9.22171e-10)
(1.60962e-09 0 0 1.60962e-09 0 1.60962e-09)
(2.7639e-09 0 0 2.7639e-09 0 2.7639e-09)
(4.8115e-09 0 0 4.8115e-09 0 4.8115e-09)
(8.222e-09 0 0 8.222e-09 0 8.222e-09)
(1.16682e-08 0 0 1.16682e-08 0 1.16682e-08)
(1.10655e-08 0 0 1.10655e-08 0 1.10655e-08)
(6.64456e-09 0 0 6.64456e-09 0 6.64456e-09)
(3.21878e-09 0 0 3.21878e-09 0 3.21878e-09)
(1.88901e-09 0 0 1.88901e-09 0 1.88901e-09)
(1.71952e-09 0 0 1.71952e-09 0 1.71952e-09)
(2.13484e-09 0 0 2.13484e-09 0 2.13484e-09)
(2.46524e-09 0 0 2.46524e-09 0 2.46524e-09)
(2.01067e-09 0 0 2.01067e-09 0 2.01067e-09)
(1.26524e-09 0 0 1.26524e-09 0 1.26524e-09)
(8.79382e-10 0 0 8.79382e-10 0 8.79382e-10)
(9.06046e-10 0 0 9.06046e-10 0 9.06046e-10)
(1.3675e-09 0 0 1.3675e-09 0 1.3675e-09)
(2.34107e-09 0 0 2.34107e-09 0 2.34107e-09)
(3.5593e-09 0 0 3.5593e-09 0 3.5593e-09)
(4.51786e-09 0 0 4.51786e-09 0 4.51786e-09)
(5.15015e-09 0 0 5.15015e-09 0 5.15015e-09)
(5.57031e-09 0 0 5.57031e-09 0 5.57031e-09)
(5.54723e-09 0 0 5.54723e-09 0 5.54723e-09)
(4.82906e-09 0 0 4.82906e-09 0 4.82906e-09)
(3.68087e-09 0 0 3.68087e-09 0 3.68087e-09)
(2.55446e-09 0 0 2.55446e-09 0 2.55446e-09)
(1.62157e-09 0 0 1.62157e-09 0 1.62157e-09)
(8.97696e-10 0 0 8.97696e-10 0 8.97696e-10)
(4.1972e-10 0 0 4.1972e-10 0 4.1972e-10)
(1.75388e-10 0 0 1.75388e-10 0 1.75388e-10)
(7.52769e-11 0 0 7.52769e-11 0 7.52769e-11)
(3.85833e-11 0 0 3.85833e-11 0 3.85833e-11)
(2.62483e-11 0 0 2.62483e-11 0 2.62483e-11)
(2.50393e-11 0 0 2.50393e-11 0 2.50393e-11)
(3.39076e-11 0 0 3.39076e-11 0 3.39076e-11)
(6.24096e-11 0 0 6.24096e-11 0 6.24096e-11)
(1.40674e-10 0 0 1.40674e-10 0 1.40674e-10)
(3.45492e-10 0 0 3.45492e-10 0 3.45492e-10)
(8.72603e-10 0 0 8.72603e-10 0 8.72603e-10)
(2.26894e-09 0 0 2.26894e-09 0 2.26894e-09)
(5.78508e-09 0 0 5.78508e-09 0 5.78508e-09)
(1.17412e-08 0 0 1.17412e-08 0 1.17412e-08)
(1.38155e-08 0 0 1.38155e-08 0 1.38155e-08)
(7.83699e-09 0 0 7.83699e-09 0 7.83699e-09)
(2.60223e-09 0 0 2.60223e-09 0 2.60223e-09)
(8.97736e-10 0 0 8.97736e-10 0 8.97736e-10)
(6.08878e-10 0 0 6.08878e-10 0 6.08878e-10)
(5.31509e-10 0 0 5.31509e-10 0 5.31509e-10)
(1.05862e-09 0 0 1.05862e-09 0 1.05862e-09)
(2.08905e-09 0 0 2.08905e-09 0 2.08905e-09)
(2.54466e-09 0 0 2.54466e-09 0 2.54466e-09)
(1.79004e-09 0 0 1.79004e-09 0 1.79004e-09)
(9.72596e-10 0 0 9.72596e-10 0 9.72596e-10)
(5.87161e-10 0 0 5.87161e-10 0 5.87161e-10)
(4.86146e-10 0 0 4.86146e-10 0 4.86146e-10)
(5.74641e-10 0 0 5.74641e-10 0 5.74641e-10)
(9.42879e-10 0 0 9.42879e-10 0 9.42879e-10)
(2.0593e-09 0 0 2.0593e-09 0 2.0593e-09)
(5.40199e-09 0 0 5.40199e-09 0 5.40199e-09)
(1.35895e-08 0 0 1.35895e-08 0 1.35895e-08)
(2.39653e-08 0 0 2.39653e-08 0 2.39653e-08)
(2.30656e-08 0 0 2.30656e-08 0 2.30656e-08)
(1.20572e-08 0 0 1.20572e-08 0 1.20572e-08)
(4.69481e-09 0 0 4.69481e-09 0 4.69481e-09)
(2.2547e-09 0 0 2.2547e-09 0 2.2547e-09)
(1.96259e-09 0 0 1.96259e-09 0 1.96259e-09)
(3.02877e-09 0 0 3.02877e-09 0 3.02877e-09)
(5.28221e-09 0 0 5.28221e-09 0 5.28221e-09)
(5.95552e-09 0 0 5.95552e-09 0 5.95552e-09)
(3.45364e-09 0 0 3.45364e-09 0 3.45364e-09)
(1.37263e-09 0 0 1.37263e-09 0 1.37263e-09)
(6.56138e-10 0 0 6.56138e-10 0 6.56138e-10)
(5.54856e-10 0 0 5.54856e-10 0 5.54856e-10)
(7.93759e-10 0 0 7.93759e-10 0 7.93759e-10)
(1.37583e-09 0 0 1.37583e-09 0 1.37583e-09)
(2.17149e-09 0 0 2.17149e-09 0 2.17149e-09)
(2.93551e-09 0 0 2.93551e-09 0 2.93551e-09)
(3.59928e-09 0 0 3.59928e-09 0 3.59928e-09)
(3.9944e-09 0 0 3.9944e-09 0 3.9944e-09)
(3.77238e-09 0 0 3.77238e-09 0 3.77238e-09)
(3.13569e-09 0 0 3.13569e-09 0 3.13569e-09)
(2.78399e-09 0 0 2.78399e-09 0 2.78399e-09)
(3.20201e-09 0 0 3.20201e-09 0 3.20201e-09)
(4.64016e-09 0 0 4.64016e-09 0 4.64016e-09)
(6.53092e-09 0 0 6.53092e-09 0 6.53092e-09)
(6.87199e-09 0 0 6.87199e-09 0 6.87199e-09)
(5.19732e-09 0 0 5.19732e-09 0 5.19732e-09)
(3.33415e-09 0 0 3.33415e-09 0 3.33415e-09)
(2.1445e-09 0 0 2.1445e-09 0 2.1445e-09)
(1.43346e-09 0 0 1.43346e-09 0 1.43346e-09)
(9.68132e-10 0 0 9.68132e-10 0 9.68132e-10)
(6.84187e-10 0 0 6.84187e-10 0 6.84187e-10)
(5.52115e-10 0 0 5.52115e-10 0 5.52115e-10)
(5.14235e-10 0 0 5.14235e-10 0 5.14235e-10)
(4.9703e-10 0 0 4.9703e-10 0 4.9703e-10)
(4.59783e-10 0 0 4.59783e-10 0 4.59783e-10)
(4.47164e-10 0 0 4.47164e-10 0 4.47164e-10)
(5.54809e-10 0 0 5.54809e-10 0 5.54809e-10)
(9.0773e-10 0 0 9.0773e-10 0 9.0773e-10)
(1.50826e-09 0 0 1.50826e-09 0 1.50826e-09)
(1.78997e-09 0 0 1.78997e-09 0 1.78997e-09)
(1.39721e-09 0 0 1.39721e-09 0 1.39721e-09)
(9.72669e-10 0 0 9.72669e-10 0 9.72669e-10)
(9.10696e-10 0 0 9.10696e-10 0 9.10696e-10)
(1.30557e-09 0 0 1.30557e-09 0 1.30557e-09)
(2.27784e-09 0 0 2.27784e-09 0 2.27784e-09)
(3.60182e-09 0 0 3.60182e-09 0 3.60182e-09)
(4.90235e-09 0 0 4.90235e-09 0 4.90235e-09)
(6.73898e-09 0 0 6.73898e-09 0 6.73898e-09)
(9.9671e-09 0 0 9.9671e-09 0 9.9671e-09)
(1.27181e-08 0 0 1.27181e-08 0 1.27181e-08)
(1.01707e-08 0 0 1.01707e-08 0 1.01707e-08)
(4.83291e-09 0 0 4.83291e-09 0 4.83291e-09)
(1.92324e-09 0 0 1.92324e-09 0 1.92324e-09)
(1.03055e-09 0 0 1.03055e-09 0 1.03055e-09)
(9.24597e-10 0 0 9.24597e-10 0 9.24597e-10)
(1.18273e-09 0 0 1.18273e-09 0 1.18273e-09)
(1.58762e-09 0 0 1.58762e-09 0 1.58762e-09)