/*--------------------------------*- C++ -*----------------------------------*\
  =========                 |
  \\      /  F ield         | OpenFOAM: The Open Source CFD Toolbox
   \\    /   O peration     | Website:  https://openfoam.org
    \\  /    A nd           | Version:  8
     \\/     M anipulation  |
\*---------------------------------------------------------------------------*/
FoamFile
{
    version     2.0;
    format      ascii;
    class       volScalarField;
    location    "700";
    object      c;
}
// * * * * * * * * * * * * * * * * * * * * * * * * * * * * * * * * * * * * * //

dimensions      [1 -3 0 0 0 0 0];

internalField   nonuniform List<scalar> 
20000
(
0.00496748
0.0049945
0.0049978
0.00511557
0.00530047
0.0054401
0.00548067
0.0054904
0.00548221
0.00546663
0.00544065
0.00541898
0.00544107
0.00490876
0.00427276
0.00510669
0.00821328
0.00757017
0.00504573
0.00466451
0.00520221
0.00539585
0.00545308
0.0054856
0.00549969
0.00549654
0.00542564
0.00531548
0.00518978
0.00517668
0.00513726
0.00513524
0.00516171
0.00524623
0.00535877
0.00545145
0.00549084
0.005471
0.00540125
0.00530959
0.00528199
0.00536352
0.00553738
0.00572148
0.00583561
0.00589936
0.00582679
0.00570349
0.00549784
0.00531387
0.00519782
0.00515919
0.00524773
0.00542565
0.005633
0.00563309
0.00471176
0.00441121
0.00508753
0.00540408
0.00549475
0.00554395
0.00560899
0.00564589
0.0055337
0.00532839
0.00496243
0.0046486
0.00480506
0.00501709
0.00529172
0.00553939
0.00566453
0.00566258
0.00560387
0.00554543
0.00551173
0.00548921
0.00546627
0.00540479
0.00544942
0.0099444
0.00478632
0.00967085
0.00543826
0.00478295
0.00494641
0.00510233
0.00526874
0.00537287
0.00535542
0.00522388
0.00515571
0.00532875
0.00545586
0.00549992
0.00554006
0.0056141
0.0057069
0.00556816
0.00542473
0.00545433
0.00550847
0.00557161
0.00565592
0.00572061
0.00567504
0.00555761
0.00539766
0.00520408
0.00517359
0.00535655
0.00547174
0.00552053
0.00555736
0.00557593
0.0055385
0.00545176
0.00541501
0.00543321
0.00545255
0.00545926
0.00545836
0.00545608
0.00545967
0.00547394
0.0054879
0.00549338
0.00549403
0.00549241
0.00548952
0.00548689
0.00548761
0.00548701
0.00548034
0.00545776
0.005441
0.00546323
0.00549428
0.0055087
0.00550766
0.00550099
0.00549841
0.00550204
0.00551196
0.00554572
0.00554968
0.00552711
0.00551454
0.00550458
0.00549734
0.00548935
0.00547017
0.00545306
0.00555215
0.00587566
0.00602073
0.00599778
0.00578601
0.00558755
0.00548268
0.00546415
0.00544006
0.00547097
0.00547951
0.005496
0.00549654
0.00550445
0.00550588
0.00551281
0.00550444
0.00549098
0.00548478
0.0054852
0.00548979
0.00549639
0.00548845
0.0053917
0.00546957
0.00560293
0.00556689
0.00552682
0.0054295
0.00523524
0.00491608
0.00692367
0.00532665
0.0054645
0.00549634
0.00549796
0.00549892
0.00549866
0.00549734
0.00549629
0.00549541
0.00549331
0.00549311
0.00549351
0.00550474
0.00550052
0.0158148
0.0155318
0.0152534
0.0153369
0.0157218
0.0161899
0.0163868
0.0164298
0.0163908
0.0163532
0.0162842
0.0162297
0.0166633
0.0143721
0.0122312
0.0161418
0.0232008
0.0202311
0.0147408
0.0142042
0.0155993
0.0161598
0.0163676
0.0164686
0.016525
0.0165349
0.016463
0.0163013
0.0160755
0.0159672
0.0158047
0.0157093
0.0157652
0.0159511
0.0161547
0.0163181
0.016368
0.0163525
0.0162529
0.0161049
0.0159575
0.0160359
0.01636
0.0167812
0.0169854
0.0170744
0.0169806
0.0168072
0.0165794
0.0163815
0.0161965
0.0161426
0.0163387
0.0166806
0.0168214
0.0163924
0.0142703
0.0136525
0.0153467
0.0162259
0.016472
0.0165778
0.0166952
0.0167774
0.016744
0.0165192
0.0159282
0.0154045
0.0152647
0.0149335
0.0150543
0.0160184
0.0165726
0.0166608
0.0165983
0.0165355
0.0165041
0.0164893
0.0164848
0.0164474
0.0161964
0.0189621
0.00901809
0.0182245
0.0150514
0.0152399
0.0153744
0.0155651
0.0159231
0.0162042
0.0162584
0.0160919
0.0159617
0.016082
0.0162434
0.0163828
0.0165302
0.0167723
0.0170372
0.0166982
0.0162905
0.0163377
0.0164904
0.0166606
0.0167487
0.0167491
0.0166619
0.0165129
0.0163185
0.0160095
0.0158781
0.0161948
0.0163826
0.01649
0.0165561
0.0165547
0.0164455
0.0162716
0.0162385
0.0163226
0.0163835
0.0163995
0.0163889
0.0163632
0.0163585
0.0164004
0.0164455
0.0164634
0.0164677
0.0164665
0.0164607
0.01645
0.0164266
0.0163775
0.0163391
0.016362
0.0163846
0.016423
0.0164612
0.0164806
0.016475
0.01646
0.016455
0.0164621
0.0165006
0.0166085
0.0166755
0.0166129
0.016564
0.0165124
0.0164781
0.0164469
0.0164073
0.0164029
0.0166421
0.0172493
0.0173833
0.0171576
0.0168115
0.0165819
0.0165831
0.0164948
0.0164881
0.0164033
0.0164541
0.0164437
0.0164759
0.0164769
0.0164961
0.0164913
0.0164723
0.0164476
0.016435
0.0164399
0.0164553
0.016472
0.0164329
0.0162047
0.0163741
0.0167247
0.0167303
0.0165847
0.0160971
0.0158746
0.0156926
0.0179945
0.0162504
0.0164492
0.0164726
0.0164733
0.0164734
0.0164724
0.0164698
0.0164692
0.0164688
0.0164667
0.0164679
0.0164779
0.0164753
0.0164886
0.0263751
0.0257244
0.0254548
0.0252408
0.0259085
0.0261147
0.0265814
0.0268558
0.0270936
0.0271065
0.0268996
0.0266975
0.0311973
0.0231831
0.0175897
0.0264257
0.0332026
0.0297216
0.0248855
0.0242482
0.0259211
0.0268883
0.0272387
0.0273773
0.0274521
0.0274811
0.0274484
0.0273446
0.0272187
0.0270593
0.0268378
0.0266401
0.0267211
0.0269408
0.0271348
0.0271816
0.0271849
0.0271813
0.0271852
0.0271316
0.0270336
0.0269219
0.0271304
0.027393
0.0276138
0.0277491
0.0277221
0.0276299
0.0275203
0.0274707
0.0274095
0.0275219
0.0277794
0.0280543
0.0279538
0.0272561
0.0247987
0.0237917
0.0255564
0.0269049
0.0273015
0.0274528
0.0275441
0.0275964
0.0275937
0.0275637
0.027498
0.0273528
0.0269468
0.0258243
0.0251253
0.0259086
0.0267284
0.0271847
0.0273593
0.0274182
0.027445
0.0274735
0.0275168
0.027585
0.0277703
0.0291029
0.0234437
0.0283054
0.0267198
0.0265578
0.0264355
0.0264498
0.0266991
0.0270517
0.0272772
0.0273249
0.027255
0.0271762
0.0271668
0.0272192
0.0273776
0.0277305
0.0280491
0.0276444
0.0271682
0.0271364
0.0273171
0.0275156
0.0275509
0.0274769
0.0274285
0.0273995
0.0273368
0.0271596
0.0270575
0.0275702
0.0272787
0.0272207
0.0273842
0.0274035
0.0272874
0.0270773
0.0270348
0.0271897
0.0273158
0.0273531
0.0273307
0.0272571
0.0271909
0.0272804
0.0273722
0.0274095
0.0274196
0.0274217
0.0274172
0.0273998
0.0273423
0.0272065
0.0271423
0.0272581
0.0273506
0.0273834
0.0274067
0.0274221
0.0274111
0.0273933
0.0273876
0.0273889
0.0274106
0.0275334
0.0276448
0.0276254
0.027605
0.0275328
0.0274469
0.0273995
0.0274087
0.0275008
0.0278782
0.0285194
0.0284878
0.0281117
0.0278006
0.0276774
0.0276665
0.0276624
0.0275697
0.0274927
0.0274217
0.0274177
0.0274026
0.0274238
0.0274206
0.0274082
0.0273837
0.027359
0.0273671
0.0273948
0.0274141
0.0274258
0.0273254
0.0270601
0.0272454
0.0276255
0.0277244
0.0274932
0.0268168
0.0268764
0.0275107
0.028056
0.0275308
0.027451
0.0274297
0.0274244
0.0274228
0.0274223
0.0274222
0.0274221
0.0274211
0.0274202
0.0274238
0.0274273
0.0274504
0.0274377
0.0357483
0.035099
0.0348295
0.0356585
0.0357056
0.0353941
0.0350242
0.0360274
0.0371848
0.0370705
0.0360844
0.0382383
0.0444718
0.0294082
0.0248321
0.0326064
0.0403437
0.038628
0.0347763
0.0340475
0.0360655
0.0375675
0.0380925
0.0382909
0.0384018
0.0384514
0.0383959
0.0382834
0.0381871
0.0380763
0.0378925
0.0376576
0.0377207
0.0379704
0.0381077
0.0381051
0.0380307
0.0379862
0.0380437
0.0381785
0.0382733
0.0381133
0.0378843
0.0375944
0.0376976
0.0380942
0.0383316
0.0384169
0.0384507
0.0384884
0.038669
0.0387094
0.0387169
0.0386538
0.0386128
0.0380614
0.0365937
0.0348866
0.0357501
0.0369275
0.037571
0.0378732
0.0380495
0.038189
0.0382648
0.0383505
0.0384291
0.0384545
0.038312
0.0374365
0.0362668
0.0363316
0.0369223
0.0374813
0.0379308
0.038186
0.0383073
0.0383835
0.0384598
0.0385675
0.0387713
0.039273
0.0379195
0.0385628
0.0378989
0.0377459
0.0376496
0.0375662
0.03762
0.0378573
0.038114
0.0382768
0.0383231
0.0382905
0.0382339
0.0382094
0.0382988
0.0385822
0.0387446
0.038409
0.0380278
0.0379065
0.0380205
0.0382169
0.0383146
0.0383327
0.0383343
0.0383224
0.0382733
0.0381276
0.0382378
0.0412425
0.0387192
0.0375753
0.0380643
0.0383416
0.0383377
0.0381437
0.037743
0.037683
0.0379402
0.0381457
0.0381551
0.0379747
0.0377928
0.0380197
0.0382409
0.0383176
0.0383379
0.0383444
0.038342
0.0383259
0.0382515
0.0380526
0.0380258
0.0381533
0.0382345
0.0382727
0.0383052
0.0383613
0.0383811
0.0383627
0.0383409
0.0383219
0.0383178
0.038372
0.0384334
0.0384593
0.0384849
0.038453
0.0383523
0.0383285
0.0383839
0.038519
0.038916
0.0396017
0.039579
0.0392519
0.0388426
0.0387009
0.0386446
0.0385674
0.0384379
0.0383812
0.0383247
0.038321
0.038309
0.038325
0.0383259
0.0383163
0.0382955
0.0382901
0.038305
0.0383319
0.0383663
0.0383565
0.0381297
0.0379388
0.0381731
0.0384032
0.038458
0.0383226
0.0379828
0.0380354
0.0384154
0.0387233
0.038519
0.0383939
0.0383581
0.0383505
0.0383501
0.0383506
0.0383512
0.0383511
0.0383507
0.0383505
0.0383538
0.0383741
0.0383676
0.0383759
0.0468601
0.0465769
0.0466961
0.0468099
0.0460065
0.0444959
0.0412083
0.0373895
0.0358877
0.0390346
0.0452792
0.0517277
0.0569821
0.0461145
0.0452925
0.0486347
0.0489556
0.0478806
0.0451079
0.0430373
0.0450016
0.0481288
0.0493043
0.0496078
0.0497582
0.0497053
0.0494602
0.0492429
0.0491013
0.0490487
0.0487615
0.0485623
0.0486064
0.0489283
0.0490561
0.0490447
0.0489239
0.0488246
0.0488368
0.0493122
0.0498091
0.0492996
0.0484724
0.0476195
0.0474363
0.047986
0.0487388
0.0491666
0.0496593
0.0499379
0.0496754
0.0488824
0.0483904
0.0486034
0.0489296
0.0490611
0.0483955
0.0472476
0.0472092
0.0475118
0.0477496
0.0478884
0.0479466
0.0477815
0.0472796
0.0475511
0.0481427
0.0484764
0.0483025
0.0478986
0.0474922
0.0474409
0.0475426
0.0477564
0.048213
0.0487078
0.0490365
0.0492248
0.0493603
0.0494939
0.0496638
0.0498557
0.0495603
0.049334
0.0489517
0.048784
0.0486948
0.048584
0.0485285
0.0486066
0.0488269
0.0490488
0.0491664
0.0491988
0.0491997
0.0492091
0.0493008
0.0495134
0.0495526
0.049287
0.0489324
0.0487028
0.0486942
0.0489736
0.0491626
0.0492233
0.0492346
0.0492241
0.0491386
0.048759
0.0498424
0.0680398
0.0579217
0.0480069
0.0483242
0.0490858
0.0492605
0.0491077
0.0485543
0.0479177
0.0480582
0.0483699
0.0484882
0.0481922
0.0480242
0.048585
0.0490452
0.0491806
0.0492234
0.0492344
0.0492382
0.0492188
0.0491096
0.0488101
0.0489906
0.0490721
0.0491179
0.0491402
0.0491869
0.0492866
0.0493279
0.0493101
0.0492734
0.0492323
0.0492105
0.049229
0.0492528
0.0492681
0.0492853
0.0492862
0.049277
0.049291
0.0493233
0.0494076
0.0497502
0.0505003
0.050492
0.0505892
0.049859
0.0495985
0.0494621
0.0493351
0.049257
0.0492429
0.0492336
0.0492285
0.0492227
0.0492269
0.0492262
0.0492213
0.0492142
0.0492168
0.0492494
0.0493023
0.04935
0.0492202
0.0489018
0.0488498
0.049089
0.0491989
0.0492159
0.0491958
0.0491483
0.0491197
0.0491889
0.0493882
0.0495656
0.0493777
0.0492588
0.0492531
0.0492547
0.0492558
0.0492558
0.0492553
0.0492549
0.0492535
0.0492552
0.0492774
0.0492964
0.0492653
0.0583009
0.0589572
0.0591052
0.0586727
0.0577457
0.0551525
0.0489986
0.0419198
0.0391512
0.0405266
0.0445932
0.0536982
0.0657894
0.0611384
0.0596346
0.0597029
0.0595302
0.0586775
0.0557913
0.0510649
0.0514688
0.0577604
0.0609574
0.0611165
0.0609353
0.0606295
0.0603614
0.0601383
0.0600993
0.0598098
0.0598325
0.0593308
0.0594122
0.059752
0.0599329
0.0599343
0.0598212
0.0595039
0.0594207
0.0621717
0.0634034
0.0594662
0.0574416
0.0572571
0.0566961
0.0570355
0.0577728
0.0592749
0.060252
0.0605792
0.0604586
0.0599967
0.0596054
0.0597214
0.0598206
0.0598915
0.0597781
0.0595287
0.0593113
0.0592328
0.0591531
0.0589927
0.0585994
0.0573038
0.0554911
0.0556467
0.0570245
0.0581525
0.0584124
0.0583775
0.0584535
0.0586127
0.0585625
0.0583954
0.0585122
0.0590517
0.0596443
0.0600124
0.0602344
0.0603901
0.060542
0.0606564
0.0605699
0.060313
0.0600072
0.0598265
0.059712
0.0595678
0.0593288
0.0591428
0.0593079
0.0597113
0.059987
0.0600826
0.0601159
0.0601516
0.060289
0.060557
0.0606253
0.0603946
0.0600888
0.0596949
0.059491
0.0596336
0.0599423
0.0600849
0.0601385
0.0600918
0.0595681
0.0581261
0.0701887
0.0849611
0.0764088
0.0574579
0.0586313
0.0599239
0.0601241
0.0600451
0.0596549
0.0590734
0.0587561
0.0586513
0.058331
0.0578297
0.0578464
0.0589052
0.0597683
0.0600463
0.0600825
0.0600868
0.0600722
0.0600525
0.0597353
0.0591519
0.0606131
0.0601032
0.0600342
0.0600642
0.0601102
0.0601773
0.0602391
0.060235
0.0601757
0.0601185
0.0601073
0.0601205
0.0601297
0.0601325
0.0601345
0.0601387
0.0601439
0.0601564
0.0601763
0.0602086
0.060493
0.0615376
0.0611613
0.0654398
0.0608305
0.0602269
0.0601613
0.06012
0.060112
0.0601125
0.0601172
0.0601164
0.0601193
0.0601182
0.0601153
0.0601111
0.0601154
0.0601443
0.0601712
0.0601874
0.0601715
0.0600664
0.059822
0.0597771
0.0599157
0.0600138
0.0600596
0.0600774
0.0600806
0.0600754
0.0600757
0.0601435
0.0604611
0.0603567
0.0601367
0.0601306
0.0601351
0.0601364
0.0601359
0.0601353
0.0601303
0.0601262
0.0601065
0.060299
0.0602099
0.0601319
0.0689952
0.0700916
0.0702815
0.069971
0.069261
0.0679132
0.0667809
0.0656734
0.0650082
0.0631065
0.0597244
0.0633211
0.0722033
0.0724039
0.0709836
0.0704312
0.0699538
0.0692306
0.0667482
0.0609498
0.0598326
0.0662477
0.0706818
0.0708927
0.0708665
0.0708942
0.0709054
0.0709096
0.0709873
0.0713196
0.0714163
0.0706879
0.0703824
0.0704492
0.070619
0.0706592
0.0705197
0.070088
0.070722
0.0774467
0.0733104
0.0659272
0.0625935
0.0646361
0.0653474
0.065101
0.065805
0.0686691
0.070635
0.070966
0.0709323
0.0708595
0.0708168
0.0707933
0.0707791
0.07074
0.0706857
0.0706569
0.070665
0.0706846
0.0706527
0.0705661
0.0702585
0.0691716
0.0673357
0.0676252
0.0687576
0.0691417
0.0688033
0.0686743
0.0690612
0.0695466
0.0696359
0.0693929
0.0691859
0.069429
0.0699637
0.0705911
0.0709696
0.0712005
0.0714068
0.0715678
0.0714705
0.0712346
0.0710302
0.0709445
0.0708917
0.0707676
0.0704692
0.0699979
0.0696768
0.0700139
0.0706304
0.0709499
0.0710433
0.07112
0.0713412
0.0717175
0.0716288
0.0714285
0.0712121
0.0709989
0.0707482
0.0707781
0.0709509
0.0710828
0.0710605
0.0709424
0.0699838
0.0650828
0.0770002
0.0844011
0.0819567
0.0639292
0.0694856
0.070847
0.0710385
0.0710543
0.0709733
0.070754
0.0703917
0.069863
0.0691185
0.0680715
0.0668318
0.0677594
0.0698648
0.0707821
0.0708631
0.0708361
0.0708141
0.0708651
0.069829
0.068483
0.0751461
0.0716139
0.0710319
0.0709793
0.0709942
0.0710642
0.071161
0.0711561
0.0710463
0.0709862
0.0709801
0.0709853
0.0709877
0.070987
0.0709848
0.0709811
0.0709776
0.0709655
0.0709277
0.070767
0.0709442
0.0733763
0.0737061
0.0937276
0.0727233
0.070564
0.0708469
0.0709285
0.0709565
0.0709803
0.0710359
0.0710645
0.0710606
0.0710228
0.0709974
0.0709611
0.0709622
0.0709742
0.070981
0.0709836
0.0709773
0.0709427
0.0708298
0.0707123
0.0707314
0.0708185
0.0708835
0.0709209
0.0709364
0.0709376
0.0709278
0.0709435
0.0712196
0.0712466
0.0710053
0.0709692
0.0709904
0.0709925
0.0709939
0.0709902
0.0709863
0.071002
0.0709126
0.0720596
0.071476
0.0709001
0.0762297
0.0798178
0.0801815
0.0798681
0.0791432
0.0791907
0.0797076
0.080381
0.0806762
0.0799024
0.0771697
0.0755441
0.0792663
0.0811436
0.0811818
0.0810887
0.0807318
0.0800253
0.0774137
0.0732645
0.0737714
0.0789006
0.0808222
0.0812254
0.0813925
0.081562
0.0817044
0.0818486
0.0820275
0.0823845
0.0826792
0.0821407
0.0814831
0.081376
0.081421
0.0814872
0.0814744
0.0808513
0.0800406
0.0862582
0.0749955
0.069394
0.0723357
0.0773161
0.0777471
0.0757348
0.0725162
0.0750142
0.0794673
0.0810302
0.0814359
0.0815487
0.081607
0.0816282
0.0816274
0.0816051
0.0815875
0.0815727
0.0815802
0.0815987
0.0815915
0.0814843
0.0811571
0.0806185
0.0801579
0.0802863
0.0803971
0.0801343
0.0795776
0.0791343
0.0794105
0.0800747
0.0804782
0.0804886
0.08041
0.080176
0.0799034
0.0797686
0.0805148
0.0812687
0.08176
0.0818851
0.081889
0.0819367
0.0819444
0.0819625
0.0820015
0.0819983
0.081862
0.0814002
0.0807437
0.0806723
0.0812555
0.0817824
0.0820003
0.0820783
0.0821753
0.0822561
0.0820711
0.0820601
0.0820777
0.0821004
0.082126
0.0820762
0.0819857
0.0819199
0.0818545
0.0817392
0.0810354
0.0736585
0.0893734
0.0848618
0.0780006
0.0746591
0.081451
0.0817125
0.0818479
0.0819066
0.0819271
0.0818977
0.0818082
0.0815932
0.0810965
0.0799314
0.0779366
0.0767781
0.0784674
0.0809309
0.081577
0.0816574
0.08173
0.0818458
0.0800501
0.0761457
0.0838215
0.0824908
0.0818388
0.0818183
0.0818485
0.0819366
0.082114
0.0820864
0.0819035
0.0818341
0.0818238
0.0818244
0.0818261
0.0818297
0.0818363
0.0818301
0.0817965
0.0817183
0.0815808
0.0812744
0.0808366
0.0904362
0.0837466
0.110959
0.0832103
0.0808282
0.0815623
0.0817376
0.0817789
0.0818144
0.0818419
0.0818584
0.0818374
0.0818174
0.0817884
0.0817606
0.0817606
0.0817764
0.0818026
0.0818141
0.0818118
0.0817849
0.0817016
0.0815767
0.0815402
0.0816126
0.0816959
0.0817465
0.0817659
0.0817641
0.0817409
0.0817166
0.081773
0.0820689
0.081926
0.0816802
0.0817885
0.0818336
0.0818393
0.0818473
0.0818074
0.0817492
0.0816024
0.0831053
0.0828083
0.0816482
0.0839417
0.089287
0.0905853
0.0907592
0.0900977
0.0897582
0.0893966
0.0906174
0.0907217
0.0899784
0.0876708
0.0846301
0.0860448
0.0893702
0.0915158
0.0918996
0.0919162
0.0905534
0.088058
0.0841043
0.0860863
0.0899728
0.0916225
0.092098
0.0921624
0.0922588
0.0924893
0.0926597
0.092853
0.0931595
0.092972
0.0923832
0.0922651
0.0923877
0.0925067
0.0926177
0.0924971
0.0916171
0.0904761
0.0975567
0.0862873
0.0786388
0.0885014
0.0919347
0.0917019
0.0886406
0.0808213
0.0782563
0.0818568
0.0874384
0.0904734
0.0916892
0.0921256
0.0923126
0.092379
0.0924101
0.0924209
0.0924438
0.0925242
0.0924774
0.0921937
0.0915167
0.0911087
0.0910692
0.0912869
0.0915167
0.091567
0.0913458
0.0908141
0.0901963
0.0901264
0.0903456
0.0906199
0.0909876
0.0914324
0.0915814
0.0909988
0.0905148
0.0906852
0.0911413
0.0913122
0.0910431
0.0908115
0.0918468
0.0924317
0.0927656
0.092958
0.0931251
0.0932165
0.0930935
0.0925823
0.0920445
0.0921183
0.0924846
0.0927373
0.0928073
0.0927929
0.0926287
0.0923459
0.0925565
0.0928649
0.0930501
0.0931192
0.0929587
0.0926839
0.0925044
0.0924651
0.0924774
0.0923813
0.0898423
0.103261
0.0825785
0.0792488
0.090378
0.092961
0.0924927
0.0925782
0.0926673
0.0926948
0.0926903
0.0926646
0.0926204
0.0925576
0.0923131
0.0907785
0.0874532
0.0877302
0.0905446
0.0920766
0.0924543
0.0925675
0.0926833
0.0911178
0.0886839
0.0927381
0.092494
0.0923821
0.0924224
0.0924956
0.0928743
0.0935822
0.0934709
0.0928347
0.092694
0.0926726
0.0926808
0.0927356
0.0928943
0.0931079
0.0930032
0.0926548
0.092425
0.0922536
0.0919677
0.0911581
0.110876
0.0931091
0.113313
0.0971336
0.0908129
0.0922299
0.0925039
0.0925804
0.0926073
0.0926153
0.0926216
0.0926225
0.0926244
0.0926127
0.092607
0.0925953
0.0926194
0.0926291
0.0926354
0.0926237
0.0925583
0.0924179
0.092257
0.092276
0.0924036
0.0925093
0.092564
0.0925874
0.0925889
0.0925723
0.0925427
0.0925562
0.0928157
0.09295
0.0922698
0.0925523
0.0926639
0.092716
0.0927134
0.0926367
0.0925672
0.0926417
0.0933821
0.0937244
0.0922588
0.0953513
0.101079
0.102199
0.102168
0.101487
0.100035
0.098988
0.0997951
0.100283
0.100079
0.0983578
0.0947159
0.0915583
0.0939533
0.099126
0.102467
0.104692
0.104489
0.10012
0.0942654
0.093854
0.0972006
0.101592
0.104087
0.102293
0.102248
0.10299
0.10402
0.103484
0.102121
0.101686
0.10228
0.102931
0.103326
0.103452
0.10345
0.103366
0.10264
0.101438
0.108459
0.10425
0.0972574
0.101968
0.103214
0.103278
0.100646
0.0917131
0.0848497
0.0872791
0.0923791
0.0967196
0.0999253
0.10185
0.102681
0.102921
0.102968
0.102916
0.102982
0.103068
0.103102
0.102847
0.102237
0.101697
0.101575
0.101843
0.102191
0.102366
0.102321
0.102117
0.101855
0.101561
0.101303
0.101169
0.101284
0.101886
0.102468
0.102398
0.102149
0.102288
0.102766
0.102802
0.101784
0.101011
0.0999773
0.100233
0.101256
0.103302
0.104078
0.104331
0.104354
0.103991
0.103211
0.102668
0.102821
0.103227
0.10345
0.103511
0.103427
0.103158
0.103256
0.10336
0.103552
0.103641
0.103557
0.10338
0.103241
0.103178
0.103233
0.10352
0.10468
0.111934
0.100149
0.0848441
0.0999984
0.10326
0.103074
0.103205
0.103341
0.103288
0.103214
0.10323
0.103291
0.103304
0.103198
0.102584
0.0998417
0.0978824
0.100297
0.102479
0.103178
0.103354
0.103216
0.102128
0.101512
0.10256
0.102847
0.102896
0.102826
0.102803
0.103545
0.105969
0.106685
0.104195
0.103619
0.103506
0.103486
0.103517
0.103699
0.104092
0.10423
0.103895
0.103222
0.103059
0.102855
0.103002
0.11833
0.100411
0.113633
0.0990241
0.101746
0.103074
0.103312
0.103375
0.103388
0.103388
0.103396
0.103407
0.103411
0.103422
0.103438
0.103495
0.103526
0.103532
0.103487
0.10332
0.103106
0.102993
0.103018
0.103129
0.103239
0.103317
0.103367
0.103396
0.103408
0.103413
0.103408
0.103402
0.103523
0.10373
0.103166
0.10336
0.103431
0.103448
0.103458
0.103414
0.103434
0.103698
0.104505
0.104185
0.103192
0.108407
0.111716
0.11271
0.11253
0.11194
0.110028
0.109395
0.110471
0.1122
0.112465
0.111897
0.108288
0.0999099
0.097208
0.105797
0.117967
0.123175
0.120007
0.114548
0.10782
0.103878
0.102724
0.107867
0.116936
0.110222
0.109449
0.115608
0.116634
0.111947
0.109408
0.10978
0.111624
0.113222
0.113908
0.114135
0.114312
0.114514
0.11429
0.114785
0.119378
0.117546
0.112783
0.112685
0.11279
0.11286
0.112011
0.106165
0.0990132
0.10003
0.102674
0.10537
0.107821
0.10982
0.110605
0.110735
0.110261
0.110338
0.111389
0.112729
0.113517
0.113547
0.11328
0.112735
0.11236
0.112388
0.112655
0.112719
0.112632
0.112543
0.112788
0.113159
0.113204
0.112945
0.112591
0.112593
0.11278
0.112835
0.112766
0.113214
0.11423
0.114645
0.114291
0.11358
0.112766
0.110904
0.111206
0.112673
0.113961
0.11451
0.114671
0.114295
0.113542
0.112841
0.113003
0.113605
0.114066
0.114279
0.114379
0.114346
0.113885
0.113677
0.113902
0.114103
0.114159
0.114173
0.114157
0.114177
0.114342
0.115015
0.116953
0.11977
0.114121
0.103435
0.112281
0.113823
0.113496
0.113607
0.113867
0.113835
0.113734
0.113747
0.113866
0.113942
0.113855
0.113321
0.111383
0.108872
0.110423
0.112787
0.113713
0.11396
0.113719
0.113079
0.1124
0.112777
0.113118
0.113353
0.113369
0.11328
0.113658
0.117783
0.119439
0.114719
0.114148
0.114203
0.114215
0.114234
0.114288
0.114473
0.115156
0.11621
0.115069
0.114374
0.113953
0.123121
0.119632
0.108533
0.113209
0.105443
0.113986
0.114161
0.114155
0.114119
0.114025
0.113983
0.114009
0.114087
0.11413
0.114182
0.114243
0.11432
0.114368
0.114363
0.114294
0.114028
0.1138
0.113823
0.113933
0.113995
0.114039
0.11409
0.114144
0.114175
0.114188
0.114193
0.114196
0.114215
0.114263
0.114269
0.114155
0.114182
0.114192
0.114194
0.114201
0.11421
0.114334
0.114888
0.116562
0.115176
0.11388
0.120618
0.122305
0.122189
0.121394
0.120333
0.118787
0.118656
0.121869
0.123912
0.124614
0.124018
0.120787
0.111231
0.102391
0.106533
0.120262
0.132717
0.130438
0.125563
0.122702
0.120059
0.11565
0.111843
0.109382
0.109937
0.113585
0.120979
0.125158
0.123653
0.119864
0.118842
0.12034
0.122892
0.124355
0.124958
0.125249
0.12562
0.125955
0.126622
0.129004
0.128466
0.123484
0.121273
0.121964
0.122801
0.122947
0.121231
0.117597
0.117145
0.118139
0.119031
0.119761
0.119409
0.117373
0.11504
0.115231
0.116873
0.119319
0.121401
0.12273
0.123325
0.123135
0.122458
0.121617
0.12163
0.122065
0.12254
0.122719
0.12295
0.123138
0.123416
0.123744
0.123762
0.123565
0.123544
0.123746
0.123802
0.123705
0.123997
0.124878
0.125223
0.125054
0.124851
0.124614
0.123922
0.123653
0.124178
0.124598
0.124627
0.124509
0.124366
0.124003
0.123624
0.123373
0.123658
0.124366
0.125265
0.125336
0.124848
0.124367
0.124327
0.124582
0.124815
0.124961
0.125127
0.125476
0.125963
0.126153
0.126147
0.126857
0.127385
0.124841
0.121995
0.12384
0.124536
0.123989
0.124021
0.124353
0.124414
0.12436
0.124326
0.124382
0.124406
0.124217
0.123653
0.122451
0.120499
0.120793
0.12248
0.123924
0.124385
0.124389
0.123869
0.123085
0.122452
0.122621
0.123913
0.12482
0.124932
0.125225
0.129331
0.13041
0.125186
0.124968
0.125008
0.124997
0.125005
0.125075
0.125413
0.126501
0.129126
0.128306
0.127028
0.126719
0.133112
0.115017
0.108032
0.119895
0.124302
0.125726
0.125419
0.124811
0.123733
0.123483
0.124084
0.124584
0.124771
0.124853
0.124889
0.124903
0.124904
0.124917
0.124952
0.124923
0.124765
0.124643
0.124707
0.124762
0.124771
0.124769
0.124824
0.124891
0.124923
0.124937
0.124947
0.124979
0.12501
0.125016
0.124988
0.124947
0.124945
0.124948
0.124951
0.124958
0.124966
0.125007
0.125476
0.127129
0.125073
0.124712
0.133559
0.132953
0.130622
0.1273
0.121411
0.120741
0.127663
0.136182
0.138681
0.137983
0.135725
0.130662
0.12278
0.115848
0.118896
0.131635
0.139172
0.136542
0.133887
0.133502
0.133375
0.131713
0.132658
0.12279
0.112874
0.116177
0.12902
0.136475
0.13442
0.130469
0.128304
0.128949
0.131303
0.134173
0.13532
0.135908
0.136075
0.136436
0.137253
0.138252
0.136287
0.131199
0.129357
0.130785
0.132042
0.132469
0.132533
0.132483
0.132969
0.133521
0.133755
0.133535
0.132052
0.128016
0.124148
0.125876
0.128706
0.130445
0.131706
0.132649
0.132964
0.132362
0.130432
0.128538
0.128921
0.130949
0.133033
0.133716
0.133647
0.133344
0.133293
0.13342
0.133422
0.133825
0.134466
0.134963
0.135163
0.135166
0.135272
0.135532
0.135597
0.135566
0.135501
0.13537
0.135152
0.135152
0.135361
0.135428
0.135377
0.135284
0.135225
0.135184
0.134997
0.134692
0.134304
0.13445
0.135217
0.135255
0.134889
0.134664
0.134855
0.135296
0.135568
0.135852
0.136236
0.136668
0.136823
0.136716
0.136493
0.136375
0.136348
0.13571
0.134993
0.1352
0.135292
0.134632
0.134676
0.134976
0.135118
0.135067
0.134888
0.134686
0.134601
0.13458
0.134484
0.134033
0.132796
0.1317
0.132188
0.133522
0.134331
0.134623
0.134333
0.133363
0.131942
0.131615
0.133976
0.13656
0.1374
0.137462
0.13923
0.139331
0.136626
0.136433
0.135991
0.135834
0.135885
0.13633
0.137429
0.138921
0.140528
0.138996
0.137092
0.136947
0.137934
0.124112
0.117587
0.134234
0.13634
0.136195
0.135922
0.135293
0.134689
0.135007
0.135391
0.135543
0.135592
0.13561
0.135564
0.135499
0.135447
0.135448
0.135474
0.135507
0.135518
0.135531
0.135575
0.135588
0.135547
0.135477
0.135539
0.13561
0.135651
0.135682
0.135761
0.135898
0.13594
0.135848
0.135747
0.135695
0.135693
0.135679
0.135685
0.135679
0.135689
0.135729
0.135889
0.136122
0.135874
0.135711
0.144358
0.142762
0.138032
0.12716
0.120907
0.123677
0.136861
0.147817
0.15093
0.149085
0.145765
0.141589
0.137355
0.135434
0.139997
0.145613
0.145981
0.143868
0.142052
0.141897
0.141418
0.141381
0.146053
0.127686
0.120682
0.126467
0.144199
0.147453
0.144073
0.14047
0.137897
0.135801
0.137444
0.141444
0.14475
0.145936
0.146649
0.146837
0.146529
0.145725
0.143872
0.140692
0.139115
0.139876
0.141203
0.142543
0.143602
0.14448
0.145334
0.14619
0.146531
0.145611
0.142761
0.137612
0.133327
0.135245
0.138728
0.140975
0.142069
0.142849
0.143089
0.142659
0.141372
0.13989
0.140373
0.142375
0.143913
0.144468
0.144518
0.144249
0.143801
0.14259
0.140909
0.143345
0.145574
0.145974
0.146105
0.146128
0.146135
0.14618
0.146221
0.146234
0.146192
0.146049
0.145872
0.145895
0.146093
0.146234
0.14631
0.146411
0.146448
0.146352
0.146178
0.145937
0.145496
0.145446
0.146419
0.145647
0.144868
0.145027
0.14571
0.146403
0.146941
0.147069
0.146867
0.146855
0.146836
0.146703
0.146639
0.146648
0.146653
0.146506
0.146321
0.146265
0.146074
0.145585
0.145457
0.145703
0.14587
0.145876
0.145668
0.145276
0.144901
0.144887
0.145132
0.145026
0.144202
0.142637
0.14252
0.143706
0.144831
0.145311
0.145314
0.144695
0.143438
0.142581
0.143688
0.145948
0.147641
0.147671
0.147798
0.147813
0.148086
0.148306
0.147504
0.147183
0.14735
0.148101
0.149514
0.150366
0.149982
0.148035
0.146882
0.146793
0.147216
0.145498
0.143427
0.146446
0.146464
0.146418
0.146383
0.146372
0.146356
0.14652
0.146462
0.146362
0.146344
0.146264
0.146096
0.145863
0.145794
0.145933
0.146084
0.146188
0.146247
0.146287
0.146318
0.146319
0.146257
0.146183
0.146219
0.146333
0.146357
0.146446
0.146565
0.146677
0.146662
0.146552
0.146445
0.146426
0.146411
0.146429
0.146399
0.146392
0.1464
0.146447
0.146579
0.146756
0.146581
0.146512
0.154888
0.152757
0.14662
0.136183
0.128958
0.133654
0.1547
0.160112
0.158117
0.156226
0.153938
0.150516
0.14791
0.149106
0.153215
0.155801
0.155661
0.153426
0.14809
0.143723
0.143744
0.144678
0.139407
0.127083
0.12483
0.143275
0.157442
0.156791
0.154762
0.15196
0.145882
0.138186
0.138021
0.145471
0.151618
0.153808
0.154033
0.152635
0.151128
0.150616
0.150334
0.150243
0.150766
0.152112
0.153391
0.154218
0.154527
0.1545
0.154452
0.155044
0.155786
0.155916
0.154623
0.150664
0.146707
0.146841
0.148278
0.149654
0.150048
0.150684
0.151623
0.152612
0.152661
0.152162
0.152437
0.153539
0.154461
0.154995
0.155089
0.154876
0.154265
0.151411
0.145835
0.151014
0.155323
0.156202
0.156579
0.156724
0.156785
0.156839
0.156885
0.156889
0.156798
0.156623
0.156687
0.156449
0.156645
0.156925
0.157143
0.157221
0.157148
0.156967
0.156865
0.156724
0.156514
0.15684
0.158034
0.156806
0.156152
0.156589
0.158086
0.159458
0.159336
0.158489
0.156961
0.155896
0.1559
0.156017
0.156162
0.156407
0.156807
0.157032
0.157037
0.157001
0.156919
0.156712
0.15646
0.156378
0.156592
0.156641
0.156555
0.156171
0.155564
0.155181
0.154758
0.154283
0.15362
0.153542
0.154247
0.155405
0.156122
0.156437
0.156571
0.156512
0.156179
0.155494
0.154991
0.155207
0.156109
0.156731
0.156773
0.156736
0.159015
0.160162
0.159765
0.160447
0.160901
0.160899
0.161444
0.160494
0.15882
0.157598
0.157177
0.157138
0.157238
0.15714
0.156898
0.157166
0.157151
0.157084
0.157071
0.157038
0.157245
0.157694
0.157655
0.157106
0.156846
0.156645
0.1564
0.156113
0.156067
0.156315
0.156632
0.156807
0.156887
0.156928
0.156954
0.156969
0.15698
0.156962
0.156995
0.157023
0.157007
0.157249
0.157386
0.157345
0.157259
0.157187
0.157158
0.157148
0.157113
0.157084
0.157078
0.157082
0.157091
0.157167
0.157335
0.157345
0.157323
0.157182
0.162238
0.160827
0.157917
0.156823
0.157719
0.164856
0.170344
0.168331
0.166349
0.164301
0.160923
0.157015
0.155992
0.159616
0.163891
0.165819
0.164986
0.160732
0.153606
0.148896
0.148934
0.160515
0.167326
0.156399
0.154383
0.166142
0.167463
0.167376
0.166438
0.162467
0.149513
0.14078
0.140047
0.148827
0.157568
0.15981
0.157857
0.156293
0.156238
0.157043
0.159276
0.161361
0.162918
0.16425
0.164871
0.165014
0.164042
0.162036
0.162193
0.164196
0.16572
0.166429
0.166443
0.165606
0.1638
0.162453
0.161779
0.160472
0.158981
0.159426
0.160962
0.162682
0.163389
0.163389
0.163469
0.164352
0.165453