/*--------------------------------*- C++ -*----------------------------------*\
  =========                 |
  \\      /  F ield         | OpenFOAM: The Open Source CFD Toolbox
   \\    /   O peration     | Website:  https://openfoam.org
    \\  /    A nd           | Version:  8
     \\/     M anipulation  |
\*---------------------------------------------------------------------------*/
FoamFile
{
    version     2.0;
    format      ascii;
    class       volScalarField;
    location    "700";
    object      c_0;
}
// * * * * * * * * * * * * * * * * * * * * * * * * * * * * * * * * * * * * * //

dimensions      [1 -3 0 0 0 0 0];

internalField   nonuniform List<scalar> 
20000
(
0.00496401
0.00499278
0.00499719
0.00511476
0.00529946
0.00543969
0.00548078
0.00549083
0.00548283
0.00546728
0.00544077
0.00541624
0.0054311
0.00491831
0.00431636
0.00507612
0.00801976
0.00747567
0.00510294
0.00469621
0.0052044
0.00539561
0.00545348
0.00548706
0.00550312
0.00549974
0.00542835
0.00531434
0.00518555
0.00517166
0.00513363
0.00512863
0.00515279
0.00523791
0.0053542
0.00545097
0.0054925
0.00547212
0.00540019
0.00530604
0.0052786
0.00536283
0.00554024
0.00572815
0.00584594
0.00591198
0.00584031
0.00571453
0.00550657
0.00531678
0.00519387
0.00515034
0.00523767
0.00541644
0.00562637
0.00562543
0.00472782
0.00441693
0.00508015
0.00540147
0.00549462
0.00554502
0.00561216
0.00565155
0.00553723
0.00532605
0.00496201
0.00464754
0.00480069
0.00501605
0.00529258
0.00554063
0.00566882
0.00566762
0.00560728
0.00554724
0.00551263
0.00548969
0.00546734
0.005409
0.00542957
0.0097579
0.00461438
0.00947514
0.00546721
0.00479197
0.00494267
0.00509685
0.00526425
0.00536991
0.00535167
0.00521682
0.0051472
0.00532465
0.00545481
0.00550005
0.00554134
0.00561664
0.00570797
0.00556907
0.00542545
0.00545432
0.0055093
0.00557432
0.00566158
0.00572921
0.00568212
0.00556036
0.00539564
0.00519367
0.00516103
0.00534952
0.0054695
0.0055202
0.00555769
0.00557668
0.00553947
0.00545262
0.00541536
0.00543315
0.00545233
0.00545899
0.00545809
0.00545595
0.00545982
0.00547426
0.0054882
0.00549353
0.00549402
0.0054922
0.00548906
0.00548628
0.00548723
0.0054872
0.00548184
0.00546304
0.00545051
0.00546843
0.00549401
0.00550624
0.00550563
0.00550006
0.00549803
0.00550141
0.00551027
0.00554254
0.00554605
0.0055245
0.00551299
0.00550399
0.0054974
0.00549019
0.00547314
0.00546075
0.00556155
0.00587494
0.00601316
0.0059913
0.00578414
0.00558794
0.0054819
0.00546405
0.00544
0.00547117
0.00547954
0.00549607
0.00549656
0.0055045
0.00550593
0.00551291
0.00550456
0.00549108
0.00548482
0.00548519
0.00548979
0.00549642
0.0054888
0.00539561
0.005471
0.00559918
0.00556426
0.00552531
0.00543201
0.00524543
0.0049378
0.00684189
0.00534436
0.00546644
0.00549612
0.00549747
0.00549822
0.0054979
0.00549685
0.0054961
0.00549546
0.00549359
0.00549339
0.0054934
0.00550427
0.00549986
0.0158091
0.0155288
0.0152517
0.0153347
0.0157176
0.0161884
0.0163874
0.0164316
0.0163926
0.016355
0.016285
0.0162231
0.0165857
0.0143848
0.0123487
0.0160282
0.0228476
0.0201555
0.0149
0.0142716
0.015607
0.01616
0.0163698
0.0164728
0.0165322
0.0165423
0.0164682
0.0163003
0.0160704
0.0159585
0.0157921
0.01569
0.0157444
0.0159339
0.0161456
0.0163158
0.0163686
0.0163514
0.0162485
0.0160965
0.0159483
0.016031
0.0163645
0.0167955
0.0170088
0.0171019
0.017006
0.0168241
0.0165876
0.016382
0.0161893
0.0161304
0.0163276
0.016675
0.0168166
0.0163925
0.0142931
0.0136563
0.0153281
0.0162196
0.0164721
0.0165808
0.0167016
0.0167866
0.0167508
0.0165204
0.0159313
0.0154054
0.0152561
0.0149293
0.015052
0.0160115
0.0165741
0.0166661
0.0166023
0.0165378
0.0165057
0.0164909
0.0164875
0.016456
0.0162324
0.019013
0.00924032
0.0182301
0.0150969
0.015251
0.0153679
0.0155553
0.0159151
0.016199
0.0162533
0.0160831
0.0159492
0.0160717
0.016237
0.01638
0.0165311
0.0167764
0.0170394
0.0167014
0.016292
0.0163376
0.0164937
0.0166691
0.0167604
0.0167599
0.0166693
0.0165149
0.0163142
0.0159936
0.01585
0.0161683
0.0163727
0.0164899
0.0165579
0.0165569
0.0164473
0.0162728
0.0162389
0.0163225
0.0163831
0.0163991
0.0163885
0.016363
0.0163592
0.0164012
0.0164462
0.0164638
0.0164678
0.0164665
0.0164605
0.0164496
0.016427
0.0163808
0.0163474
0.0163751
0.0163995
0.0164298
0.0164601
0.0164772
0.0164739
0.0164617
0.0164577
0.0164644
0.0165004
0.0166023
0.0166626
0.0166011
0.0165567
0.0165099
0.0164789
0.0164511
0.016417
0.0164205
0.0166591
0.0172434
0.017365
0.0171429
0.0168055
0.0165799
0.0165811
0.0164938
0.0164883
0.0164039
0.0164546
0.0164438
0.0164761
0.016477
0.0164963
0.0164915
0.0164726
0.0164479
0.0164351
0.0164399
0.0164553
0.0164722
0.0164346
0.0162148
0.0163792
0.0167167
0.0167212
0.0165786
0.0161106
0.0158969
0.0157426
0.0179242
0.0162748
0.0164507
0.0164721
0.0164727
0.0164726
0.0164714
0.0164692
0.0164689
0.0164687
0.0164668
0.0164677
0.0164772
0.0164741
0.0164871
0.0263683
0.0257195
0.0254512
0.025232
0.0258985
0.0261077
0.0265842
0.0268596
0.0270972
0.0271102
0.0269054
0.0266795
0.0308542
0.0229758
0.0176872
0.0261811
0.0329067
0.0297212
0.0250214
0.0243041
0.0259253
0.0268869
0.0272397
0.027381
0.0274582
0.0274886
0.0274552
0.0273474
0.0272163
0.0270509
0.026823
0.02662
0.0267003
0.0269255
0.027125
0.0271747
0.0271772
0.0271728
0.0271754
0.0271194
0.0270184
0.0269123
0.0271335
0.027413
0.0276426
0.0277772
0.0277425
0.0276412
0.0275255
0.0274721
0.0274087
0.0275218
0.0277862
0.0280671
0.0279602
0.0272541
0.0248004
0.0237814
0.0255302
0.0268954
0.0273005
0.0274551
0.0275487
0.0276027
0.0276007
0.0275702
0.0275035
0.0273559
0.0269437
0.0258272
0.0251256
0.0258872
0.0267107
0.0271783
0.027358
0.0274187
0.0274464
0.0274762
0.0275217
0.0275937
0.0277814
0.0290906
0.0238368
0.0282704
0.0267301
0.0265601
0.0264311
0.0264411
0.0266901
0.0270447
0.0272737
0.027323
0.0272521
0.0271699
0.0271593
0.0272127
0.0273737
0.0277296
0.0280483
0.0276467
0.027169
0.0271366
0.0273208
0.0275234
0.0275574
0.0274795
0.0274292
0.0273993
0.0273354
0.0271536
0.0270344
0.027516
0.0272597
0.0272261
0.0273897
0.0274068
0.0272898
0.0270778
0.0270356
0.0271901
0.0273159
0.0273532
0.0273308
0.0272585
0.027194
0.0272827
0.0273731
0.0274101
0.0274202
0.0274223
0.0274181
0.0274011
0.0273458
0.0272167
0.0271585
0.0272718
0.027358
0.0273848
0.0274049
0.0274215
0.0274147
0.0273995
0.0273942
0.0273959
0.0274171
0.0275329
0.0276329
0.0276105
0.0275946
0.0275315
0.0274545
0.0274106
0.0274204
0.027512
0.0278798
0.0284986
0.0284617
0.0280937
0.0277924
0.0276733
0.0276639
0.0276614
0.0275702
0.0274942
0.0274227
0.0274184
0.027403
0.0274242
0.0274209
0.0274086
0.0273842
0.0273594
0.0273673
0.0273948
0.027414
0.027426
0.0273289
0.0270731
0.0272532
0.0276194
0.0277138
0.0274873
0.0268368
0.0268959
0.0275136
0.0280279
0.0275282
0.0274498
0.0274292
0.0274241
0.0274226
0.0274222
0.0274221
0.0274219
0.0274208
0.0274197
0.0274228
0.0274258
0.0274487
0.0274358
0.0357376
0.0350897
0.0348175
0.0356424
0.0356829
0.0353737
0.0350227
0.0360325
0.0371855
0.0370799
0.0361092
0.0381458
0.0441299
0.0297869
0.0252569
0.0329329
0.0402721
0.0386157
0.0348169
0.0340811
0.0360663
0.03756
0.0380895
0.0382927
0.0384076
0.0384599
0.038403
0.0382858
0.0381849
0.0380707
0.0378815
0.0376421
0.0377059
0.0379605
0.0381001
0.0380959
0.0380184
0.0379726
0.0380297
0.0381615
0.0382511
0.0380993
0.0378959
0.0376294
0.037734
0.0381184
0.0383455
0.038424
0.0384545
0.0384907
0.0386715
0.0387208
0.0387415
0.0386806
0.0386288
0.0380653
0.0366014
0.034874
0.0357139
0.0369057
0.0375612
0.0378685
0.038048
0.0381914
0.0382719
0.0383594
0.0384377
0.0384619
0.0383186
0.0374506
0.0362734
0.0363069
0.0368918
0.037461
0.037921
0.0381824
0.0383072
0.038386
0.0384655
0.0385777
0.0387851
0.0392789
0.038029
0.038559
0.0379082
0.03775
0.0376493
0.0375621
0.0376122
0.0378485
0.0381074
0.0382742
0.0383223
0.0382891
0.0382307
0.0382047
0.0382937
0.0385776
0.0387399
0.0384071
0.038026
0.0379043
0.0380196
0.0382176
0.0383152
0.0383328
0.0383342
0.0383224
0.0382739
0.0381305
0.0382234
0.0409683
0.0386355
0.0376093
0.0380802
0.0383498
0.0383427
0.0381495
0.0377463
0.0376851
0.0379396
0.0381462
0.0381573
0.0379815
0.0378015
0.0380217
0.0382402
0.0383172
0.0383379
0.0383448
0.0383429
0.0383279
0.0382577
0.0380703
0.0380473
0.0381686
0.0382418
0.0382757
0.0383068
0.0383631
0.0383841
0.0383672
0.0383468
0.0383305
0.038329
0.0383792
0.0384317
0.0384524
0.0384784
0.0384536
0.03836
0.0383366
0.0383884
0.0385198
0.0389071
0.0395716
0.0395457
0.0392251
0.0388313
0.0386962
0.0386425
0.0385672
0.0384386
0.0383821
0.0383256
0.0383218
0.0383097
0.0383255
0.0383264
0.0383168
0.0382962
0.0382907
0.0383053
0.0383318
0.0383659
0.0383566
0.038136
0.0379523
0.0381799
0.0384021
0.0384538
0.0383209
0.0379939
0.0380443
0.038412
0.0387057
0.0385122
0.038392
0.0383575
0.0383503
0.0383501
0.0383507
0.0383512
0.0383511
0.0383505
0.03835
0.0383527
0.0383722
0.0383655
0.0383738
0.0468553
0.0465696
0.0466854
0.04679
0.0459726
0.0444397
0.0411385
0.0373329
0.0358142
0.0388668
0.0450332
0.0515294
0.0569338
0.0465063
0.0455517
0.0486423
0.0489147
0.0478453
0.0451032
0.0430523
0.0449911
0.0481055
0.0492955
0.0496144
0.0497728
0.0497207
0.0494692
0.0492427
0.0490977
0.0490405
0.0487523
0.0485485
0.0485961
0.0489212
0.0490508
0.049038
0.0489137
0.0488095
0.0488196
0.0492757
0.0497548
0.0492834
0.0485111
0.0476759
0.0474809
0.0480154
0.0487598
0.0491875
0.0496826
0.0499673
0.0497112
0.0489283
0.0484289
0.0486292
0.0489452
0.0490709
0.0484165
0.0472469
0.0471853
0.0474832
0.0477261
0.0478687
0.0479353
0.0477894
0.0473114
0.0475812
0.048155
0.0484798
0.0483027
0.0478993
0.0474865
0.0474173
0.047509
0.047724
0.0481907
0.0486963
0.0490328
0.0492266
0.0493673
0.0495065
0.0496823
0.0498768
0.049597
0.049352
0.0489642
0.0487911
0.0486974
0.0485837
0.0485228
0.0485975
0.0488182
0.0490435
0.0491639
0.0491972
0.0491982
0.0492073
0.0492987
0.0495102
0.0495479
0.0492825
0.0489273
0.048695
0.048687
0.0489693
0.0491613
0.0492229
0.0492345
0.0492244
0.0491419
0.048778
0.0497634
0.0673923
0.0573908
0.0480623
0.0483834
0.0491037
0.0492705
0.0491138
0.0485603
0.0479108
0.0480493
0.0483635
0.048489
0.0481979
0.0480309
0.0485813
0.0490403
0.0491778
0.0492222
0.0492339
0.0492386
0.0492209
0.0491186
0.0488368
0.0490143
0.0490946
0.0491336
0.0491506
0.0491926
0.0492869
0.0493254
0.0493102
0.049278
0.0492418
0.049221
0.0492351
0.0492542
0.049267
0.0492833
0.0492852
0.0492772
0.0492904
0.0493221
0.0494059
0.0497433
0.0504722
0.0504615
0.0505369
0.0498459
0.0495956
0.0494618
0.0493359
0.049258
0.0492437
0.0492343
0.0492292
0.0492234
0.0492275
0.0492267
0.049222
0.0492151
0.0492178
0.0492503
0.0493029
0.0493499
0.0492208
0.0489108
0.0488617
0.049094
0.0492004
0.0492165
0.0491966
0.0491505
0.0491222
0.0491878
0.0493786
0.0495539
0.0493728
0.0492578
0.0492529
0.0492547
0.0492558
0.0492558
0.0492552
0.0492547
0.0492531
0.0492543
0.049275
0.049294
0.0492636
0.0583036
0.0589547
0.0590992
0.0586607
0.057724
0.0551284
0.0490548
0.0419909
0.0391857
0.0405442
0.0446643
0.0537773
0.0656836
0.0611871
0.0596597
0.0596975
0.0595149
0.0586505
0.0557613
0.0510539
0.0514181
0.0576447
0.0609324
0.0611295
0.0609544
0.060643
0.0603644
0.0601346
0.060088
0.0597971
0.0598055
0.0593088
0.0593967
0.0597449
0.0599291
0.0599304
0.0598137
0.0594898
0.0593882
0.0620058
0.0632656
0.0594434
0.0575207
0.0573311
0.0567636
0.0571068
0.0578444
0.0593286
0.0602987
0.0606209
0.0604945
0.0600292
0.0596258
0.059731
0.0598248
0.0598931
0.0597783
0.0595268
0.0593015
0.0592178
0.0591361
0.0589766
0.0585993
0.05736
0.0555554
0.0556802
0.0570031
0.0581225
0.0583909
0.058359
0.0584323
0.0585886
0.0585347
0.0583615
0.0584814
0.0590319
0.0596373
0.0600137
0.0602426
0.0604028
0.0605598
0.0606775
0.0605953
0.0603346
0.0600258
0.0598405
0.0597236
0.0595722
0.0593237
0.0591287
0.0592932
0.0597014
0.0599823
0.0600805
0.0601148
0.0601509
0.060288
0.060555
0.0606237
0.0603938
0.0600849
0.0596854
0.0594741
0.0596205
0.0599364
0.0600833
0.0601386
0.0600943
0.0595887
0.0581089
0.0698061
0.0849927
0.0760667
0.0576181
0.0587293
0.0599536
0.060136
0.0600492
0.0596532
0.0590667
0.0587386
0.0586312
0.0583106
0.0578194
0.0578497
0.0589013
0.0597619
0.060044
0.0600816
0.0600858
0.0600706
0.0600517
0.0597487
0.0591951
0.0606118
0.0601343
0.0600586
0.0600781
0.0601146
0.0601736
0.0602327
0.0602331
0.0601805
0.0601261
0.0601125
0.0601223
0.0601299
0.0601321
0.0601337
0.0601376
0.0601426
0.0601548
0.0601753
0.060211
0.0604976
0.0615146
0.0611239
0.0650458
0.0608095
0.0602343
0.0601649
0.0601221
0.0601133
0.0601135
0.060118
0.0601171
0.0601201
0.0601189
0.060116
0.060112
0.0601167
0.0601461
0.0601729
0.0601886
0.060172
0.0600677
0.0598295
0.0597865
0.0599209
0.0600162
0.0600609
0.0600784
0.0600816
0.0600763
0.0600757
0.06014
0.0604481
0.0603478
0.0601349
0.0601303
0.0601351
0.0601363
0.0601359
0.0601353
0.0601304
0.0601265
0.0601082
0.0602911
0.0602066
0.0601321
0.0689997
0.0700883
0.0702773
0.0699648
0.0692546
0.0679156
0.0668176
0.0657508
0.065093
0.0632218
0.0599473
0.0634848
0.0722084
0.0724041
0.0709885
0.070421
0.0699336
0.0692011
0.0667223
0.0609804
0.0599048
0.0662522
0.0706455
0.0708832
0.0708633
0.0708919
0.0709019
0.0709041
0.0709767
0.0712997
0.0713844
0.0706533
0.0703499
0.0704301
0.0706082
0.0706507
0.0705092
0.0700629
0.0705885
0.0770522
0.0729255
0.0659585
0.062702
0.0646484
0.065406
0.065187
0.065905
0.0687356
0.0706788
0.0709911
0.0709454
0.0708654
0.0708183
0.0707926
0.0707775
0.070738
0.0706831
0.0706531
0.0706596
0.0706789
0.0706476
0.0705641
0.0702659
0.0692046
0.0673838
0.0676482
0.0687408
0.0691172
0.068774
0.0686437
0.0690331
0.0695245
0.0696136
0.0693684
0.0691585
0.0694139
0.0699553
0.0705946
0.0709751
0.0712107
0.0714183
0.0715846
0.0714922
0.0712575
0.0710501
0.0709615
0.0709059
0.070778
0.0704722
0.0699883
0.0696561
0.0699945
0.0706181
0.070945
0.0710411
0.0711179
0.0713356
0.0717107
0.0716285
0.0714315
0.0712133
0.0709956
0.0707372
0.0707661
0.0709462
0.0710851
0.0710645
0.070949
0.0700601
0.0650947
0.0766463
0.0844368
0.0819223
0.0642067
0.0695685
0.0708735
0.071051
0.0710616
0.0709772
0.0707535
0.0703836
0.069842
0.069082
0.0680376
0.0668388
0.0677721
0.0698583
0.0707791
0.0708619
0.0708328
0.0708057
0.0708473
0.0698423
0.0684691
0.0750497
0.0716552
0.0710563
0.0709874
0.070994
0.0710587
0.0711537
0.071153
0.0710489
0.0709893
0.0709812
0.0709852
0.0709873
0.0709864
0.0709842
0.0709806
0.0709772
0.0709657
0.0709307
0.0707831
0.0709802
0.0732826
0.0734558
0.0928118
0.072606
0.0705873
0.070854
0.0709313
0.0709583
0.0709818
0.0710375
0.071066
0.071062
0.071024
0.0709986
0.0709625
0.0709639
0.0709759
0.0709823
0.0709845
0.070978
0.0709442
0.0708344
0.0707203
0.070738
0.0708221
0.0708852
0.0709219
0.0709371
0.0709382
0.0709277
0.0709415
0.0712099
0.0712349
0.0710019
0.070969
0.0709904
0.0709925
0.070994
0.0709908
0.0709888
0.0710085
0.0709283
0.0720215
0.0714673
0.0709071
0.0762222
0.0798034
0.080172
0.0798598
0.0791357
0.0791971
0.0797262
0.0803931
0.0806835
0.0799139
0.0772218
0.0756197
0.0792772
0.0811341
0.0811691
0.0810714
0.0807069
0.0799963
0.0773847
0.0733126
0.0738307
0.0788939
0.0808051
0.0812131
0.0813842
0.0815563
0.0816991
0.0818429
0.0820223
0.0823823
0.0826837
0.0821441
0.0814744
0.0813596
0.0814012
0.0814624
0.0814435
0.0808185
0.0799328
0.0855018
0.0753053
0.0695853
0.0724257
0.0772481
0.0776745
0.0757452
0.0726651
0.075104
0.0795073
0.0810512
0.081446
0.0815529
0.081608
0.0816277
0.0816262
0.0816036
0.0815856
0.0815699
0.0815767
0.0815959
0.0815912
0.0814898
0.0811723
0.0806445
0.0801844
0.0802959
0.0803919
0.0801188
0.0795541
0.0791015
0.0793795
0.0800543
0.0804684
0.0804864
0.0804303
0.0802072
0.0799433
0.0797668
0.0805003
0.0812401
0.0817397
0.0818759
0.0818986
0.081952
0.0819592
0.0819751
0.082014
0.08201
0.0818713
0.0814044
0.0807364
0.0806548
0.0812342
0.0817673
0.0819919
0.0820688
0.0821561
0.0822304
0.0820584
0.0820586
0.0820802
0.082104
0.0821302
0.0820805
0.0819912
0.0819252
0.0818582
0.0817412
0.081062
0.0739585
0.0886542
0.084576
0.0781588
0.0749265
0.0814554
0.0817221
0.0818548
0.0819126
0.0819331
0.0819027
0.0818102
0.0815885
0.0810788
0.0799096
0.0779583
0.076818
0.0784623
0.0809156
0.0815707
0.0816532
0.081724
0.0818299
0.0801294
0.0763951
0.0837268
0.0825101
0.0818387
0.0818104
0.0818407
0.081928
0.0821027
0.0820792
0.0819033
0.0818347
0.0818238
0.0818238
0.0818252
0.0818288
0.0818355
0.0818299
0.0817973
0.0817216
0.0815897
0.0813026
0.0809055
0.0899446
0.0836484
0.110735
0.0831874
0.0808634
0.0815703
0.0817404
0.0817808
0.0818164
0.081844
0.0818603
0.0818387
0.0818185
0.0817896
0.081762
0.0817621
0.0817774
0.0818032
0.0818146
0.0818126
0.0817866
0.0817059
0.0815846
0.0815478
0.081617
0.0816979
0.0817475
0.0817664
0.0817644
0.0817408
0.0817156
0.081768
0.0820565
0.0819171
0.0816827
0.0817882
0.0818336
0.08184
0.0818495
0.0818136
0.0817599
0.0816255
0.0830631
0.0827811
0.0816683
0.0839463
0.0892483
0.0905697
0.0907524
0.0900955
0.0897657
0.0893981
0.0906155
0.0907165
0.0899698
0.0876615
0.0846465
0.086061
0.0893603
0.0915031
0.0918823
0.0918881
0.0904845
0.088021
0.0841304
0.0861296
0.0899723
0.0916106
0.092087
0.0921575
0.0922504
0.0924753
0.0926451
0.0928485
0.0931802
0.0930213
0.0924215
0.0922771
0.0923829
0.0924907
0.0925905
0.0924614
0.0915883
0.0904405
0.0973003
0.0870231
0.0791713
0.0885391
0.0918536
0.0915917
0.088564
0.0810587
0.0784886
0.0819425
0.0874724
0.0904936
0.0916972
0.0921283
0.0923134
0.0923792
0.0924107
0.0924228
0.0924467
0.0925302
0.0924874
0.0922095
0.091532
0.0911264
0.0910906
0.0913019
0.0915224
0.091566
0.09134
0.0908046
0.0901799
0.0901202
0.0903546
0.0906484
0.0910343
0.0914896
0.0916395
0.0910371
0.0905219
0.0906604
0.0911028
0.091258
0.0909994
0.090782
0.0918489
0.0924344
0.0927749
0.0929672
0.0931382
0.0932312
0.0931074
0.0925904
0.0920334
0.0920944
0.0924637
0.0927244
0.0927959
0.0927718
0.0925916
0.0923047
0.0925353
0.0928624
0.0930562
0.0931294
0.0929676
0.0926879
0.0925042
0.0924637
0.0924773
0.0923889
0.0900168
0.103194
0.0828377
0.079304
0.0903725
0.0928973
0.0924796
0.0925774
0.0926721
0.0927034
0.0926992
0.0926704
0.0926229
0.0925567
0.0923066
0.0907767
0.0874817
0.0877458
0.090527
0.0920675
0.0924554
0.0925733
0.0926948
0.0911892
0.0888773
0.0927183
0.0924777
0.0923652
0.0924058
0.0924842
0.0928612
0.0935504
0.0934471
0.0928363
0.0926974
0.0926756
0.0926835
0.0927373
0.0928934
0.0931037
0.0929997
0.0926557
0.0924313
0.0922649
0.0919917
0.0912366
0.110614
0.0930812
0.113273
0.0970633
0.0908543
0.0922365
0.092506
0.0925821
0.0926093
0.0926174
0.0926233
0.0926237
0.0926255
0.092614
0.0926086
0.0925969
0.0926205
0.0926298
0.092636
0.092625
0.0925612
0.092424
0.0922651
0.0922826
0.0924069
0.0925107
0.0925646
0.0925877
0.092589
0.0925723
0.0925426
0.0925553
0.0928075
0.0929359
0.0922806
0.0925528
0.0926637
0.0927161
0.0927147
0.0926421
0.0925754
0.0926478
0.0933514
0.0936904
0.0922856
0.0954056
0.101062
0.10219
0.102167
0.101494
0.100049
0.0989934
0.0997775
0.100257
0.100047
0.098309
0.0946742
0.0915439
0.0939155
0.0990442
0.102324
0.104532
0.104369
0.100021
0.0942813
0.0938799
0.0972194
0.101588
0.104035
0.102292
0.102236
0.102945
0.10397
0.103517
0.102237
0.101791
0.102328
0.102944
0.103325
0.103447
0.10344
0.103348
0.102625
0.101451
0.108219
0.104447
0.097702
0.10199
0.103167
0.103201
0.100683
0.0920838
0.0851822
0.0874074
0.0924121
0.0967378
0.0999393
0.101856
0.102685
0.102926
0.102977
0.10293
0.103001
0.103089
0.103124
0.102869
0.102255
0.101713
0.101589
0.101854
0.102198
0.102372
0.102329
0.102133
0.101893
0.10161
0.101356
0.101218
0.101314
0.101902
0.102488
0.10242
0.102171
0.1023
0.102765
0.102791
0.10176
0.101032
0.0998974
0.100177
0.101151
0.103252
0.104065
0.104338
0.104366
0.103999
0.103204
0.102647
0.102798
0.103212
0.103441
0.103498
0.1034
0.103115
0.103223
0.103348
0.103553
0.103647
0.103561
0.10338
0.103237
0.103173
0.103229
0.103521
0.104677
0.111732
0.10072
0.0852216
0.100064
0.103201
0.103054
0.103206
0.103354
0.103303
0.103222
0.103233
0.103291
0.103303
0.103196
0.102579
0.0998566
0.0979226
0.100294
0.102473
0.103183
0.103366
0.103234
0.102161
0.101557
0.102555
0.10284
0.102889
0.102822
0.102812
0.103536
0.105893
0.106598
0.104217
0.103633
0.103514
0.103491
0.10352
0.103698
0.104086
0.104215
0.10388
0.10323
0.103071
0.102873
0.10299
0.118354
0.100667
0.113678
0.0990463
0.101759
0.103075
0.103312
0.103377
0.10339
0.10339
0.103398
0.103408
0.103413
0.103423
0.10344
0.103498
0.103528
0.103534
0.103489
0.103324
0.103112
0.102999
0.103024
0.103132
0.103241
0.103317
0.103367
0.103397
0.103408
0.103413
0.103408
0.103402
0.10352
0.103721
0.103175
0.10336
0.10343
0.103447
0.103457
0.103417
0.10344
0.103698
0.104459
0.104159
0.103216
0.108446
0.111709
0.112706
0.112532
0.111953
0.110052
0.109411
0.110444
0.112166
0.112425
0.111842
0.108219
0.0999337
0.0971325
0.105172
0.117507
0.122948
0.119947
0.114579
0.10789
0.103887
0.10275
0.107778
0.11701
0.110153
0.109319
0.115534
0.116744
0.112271
0.109694
0.109928
0.111676
0.113236
0.113911
0.114135
0.114309
0.114505
0.114275
0.114753
0.119198
0.117551
0.112953
0.112746
0.11281
0.112855
0.112062
0.106508
0.0993401
0.100173
0.102685
0.105356
0.107808
0.109833
0.110645
0.110802
0.11034
0.110404
0.111424
0.112748
0.113536
0.113558
0.11329
0.112746
0.112377
0.112406
0.112675
0.11274
0.112657
0.11257
0.112815
0.113191
0.113228
0.112964
0.112605
0.112606
0.112794
0.112854
0.112789
0.113233
0.114239
0.114649
0.114296
0.113573
0.112764
0.11085
0.111107
0.112551
0.11389
0.114483
0.114666
0.114291
0.113529
0.11281
0.112973
0.113584
0.114053
0.114266
0.114362
0.114322
0.113863
0.113663
0.113895
0.114099
0.114156
0.114169
0.114152
0.11417
0.114337
0.115014
0.116904
0.119628
0.114325
0.10405
0.112316
0.113789
0.11349
0.113618
0.113876
0.11384
0.113732
0.113743
0.113863
0.11394
0.113854
0.113319
0.111397
0.10893
0.110441
0.112787
0.113715
0.113967
0.113726
0.113093
0.112417
0.112783
0.113123
0.11336
0.113384
0.113314
0.113682
0.117668
0.1193
0.114758
0.114163
0.114208
0.114217
0.114235
0.114288
0.114469
0.115135
0.116145
0.115065
0.114395
0.113985
0.122718
0.119507
0.108662
0.113502
0.105588
0.113965
0.114156
0.114154
0.11412
0.114027
0.113985
0.114011
0.114088
0.114132
0.114185
0.114247
0.114326
0.114374
0.114368
0.114298
0.114033
0.113806
0.113827
0.113935
0.113995
0.114039
0.11409
0.114144
0.114175
0.114188
0.114193
0.114196
0.114215
0.114261
0.114266
0.114156
0.114182
0.114192
0.114194
0.114201
0.114211
0.114342
0.114895
0.116483
0.115169
0.113904
0.120631
0.122302
0.122184
0.121394
0.120338
0.118802
0.118652
0.121789
0.123832
0.124553
0.123952
0.120735
0.111373
0.102587
0.106506
0.120082
0.132565
0.130439
0.125566
0.122692
0.120025
0.115555
0.111199
0.109182
0.10988
0.113251
0.120623
0.12522
0.123887
0.120044
0.118941
0.120389
0.122906
0.12436
0.124959
0.12525
0.12562
0.125953
0.126603
0.128908
0.128445
0.123626
0.121392
0.122037
0.12284
0.122966
0.121323
0.117762
0.117221
0.11812
0.118973
0.119719
0.119428
0.117536
0.115238
0.115379
0.116933
0.119327
0.121401
0.122732
0.123341
0.123155
0.122496
0.121661
0.121674
0.122095
0.122559
0.122719
0.122945
0.123132
0.123415
0.12375
0.123776
0.123587
0.123569
0.123769
0.123823
0.123724
0.123998
0.124865
0.125216
0.125052
0.124849
0.12461
0.12392
0.123642
0.124143
0.124565
0.124606
0.12449
0.12435
0.123986
0.123604
0.123335
0.123612
0.124317
0.125228
0.125304
0.124822
0.124347
0.12431
0.12457
0.124807
0.124956
0.125124
0.125473
0.125962
0.126156
0.126152
0.126824
0.127324
0.12493
0.122201
0.12386
0.124523
0.123994
0.124022
0.12435
0.124407
0.124351
0.124317
0.124377
0.124406
0.124223
0.123661
0.122476
0.120547
0.120824
0.122479
0.123921
0.124385
0.124392
0.123874
0.123101
0.122479
0.122655
0.123923
0.124831
0.124962
0.125258
0.129232
0.130308
0.125217
0.124971
0.125008
0.124997
0.125005
0.125074
0.12541
0.126481
0.129015
0.128267
0.127046
0.126751
0.132983
0.115295
0.107978
0.119924
0.124315
0.125704
0.125412
0.12481
0.123739
0.123487
0.124084
0.124585
0.124772
0.124855
0.124893
0.124909
0.12491
0.124924
0.124958
0.124927
0.124769
0.124647
0.124708
0.124762
0.12477
0.124768
0.124824
0.12489
0.124923
0.124937
0.124947
0.124978
0.125009
0.125015
0.124988
0.124947
0.124945
0.124948
0.124951
0.124958
0.124966
0.125011
0.125486
0.127082
0.125079
0.124725
0.133564
0.132947
0.130606
0.12728
0.121372
0.120631
0.12732
0.1359
0.13853
0.137916
0.135699
0.130718
0.12305
0.116306
0.11928
0.131712
0.139104
0.136488
0.133842
0.133457
0.133331
0.131586
0.131738
0.12286
0.113779
0.11653
0.128676
0.136226
0.134398
0.130477
0.128341
0.12899
0.131334
0.134176
0.135323
0.135912
0.136087
0.136451
0.137268
0.138261
0.136386
0.131395
0.129506
0.130865
0.132096
0.132516
0.13258
0.132533
0.132974
0.133481
0.133694
0.13348
0.132086
0.128212
0.124392
0.126011
0.128751
0.130453
0.131707
0.132662
0.132996
0.132431
0.130554
0.128618
0.12895
0.130927
0.133015
0.133699
0.133621
0.133317
0.13328
0.13343
0.13345
0.133852
0.134487
0.134977
0.135172
0.135169
0.135267
0.135523
0.135591
0.135563
0.135499
0.135367
0.135149
0.135148
0.135355
0.135422
0.13537
0.135275
0.135218
0.135181
0.134989
0.134675
0.134257
0.134365
0.135112
0.135181
0.134852
0.134635
0.134829
0.135278
0.135558
0.135848
0.136239
0.13668
0.136839
0.136731
0.136503
0.136368
0.136327
0.135718
0.135027
0.135207
0.135282
0.13463
0.13467
0.134966
0.135109
0.135057
0.134876
0.13468
0.134606
0.134592
0.134499
0.134053
0.132836
0.131745
0.132204
0.133517
0.134326
0.134627
0.134345
0.133397
0.131997
0.131681
0.133975
0.136543
0.137406
0.137488
0.139182
0.139288
0.136602
0.136401
0.135982
0.135832
0.135884
0.136326
0.137414
0.138879
0.140427
0.138954
0.137098
0.136935
0.138128
0.124688
0.117972
0.134351
0.136326
0.136186
0.135918
0.135292
0.134694
0.135008
0.135389
0.135543
0.135593
0.135612
0.135568
0.135505
0.135454
0.135456
0.13548
0.135511
0.135521
0.135533
0.135576
0.135588
0.135547
0.135478
0.135538
0.135609
0.135651
0.135682
0.135761
0.135898
0.135938
0.135846
0.135746
0.135695
0.135693
0.135679
0.135685
0.135679
0.135688
0.135727
0.135883
0.136102
0.135871
0.135709
0.144361
0.142759
0.138028
0.127161
0.120805
0.123443
0.136403
0.147522
0.150854
0.149071
0.14577
0.141634
0.137499
0.13571
0.140109
0.145546
0.145871
0.143771
0.141983
0.141855
0.141364
0.141275
0.146453
0.128373
0.121636
0.126822
0.144116
0.147203
0.143882
0.140314
0.137831
0.135848
0.137456
0.141429
0.144736
0.145932
0.146654
0.146862
0.146588
0.145836
0.144063
0.140934
0.139288
0.139975
0.141264
0.142582
0.143628
0.144497
0.145336
0.146172
0.146509
0.145624
0.14287
0.137866
0.133548
0.135361
0.138777
0.141006
0.142097
0.142885
0.143133
0.142718
0.14146
0.139964
0.140405
0.142362
0.143891
0.144443
0.144492
0.144222
0.143784
0.142602
0.14098
0.143338
0.145556
0.145963
0.146103
0.146124
0.146132
0.146176
0.146218
0.146232
0.146189
0.146045
0.145866
0.14589
0.146089
0.146231
0.146308
0.146411
0.146449
0.146353
0.146175
0.145929
0.145474
0.145389
0.14631
0.145576
0.144822
0.144984
0.145667
0.146371
0.146925
0.147071
0.146882
0.146875
0.146851
0.146712
0.146645
0.146652
0.146655
0.146512
0.146329
0.146266
0.146069
0.145575
0.145441
0.14569
0.145859
0.145866
0.145659
0.145273
0.144906
0.144897
0.145145
0.145043
0.144241
0.142704
0.142578
0.143723
0.14484
0.145328
0.145332
0.144729
0.143496
0.142649
0.143714
0.145936
0.147633
0.147668
0.147771
0.147771
0.148008
0.148231
0.147473
0.14717
0.147341
0.148085
0.149471
0.150305
0.149919
0.148023
0.146887
0.146787
0.147194
0.145607
0.143592
0.146451
0.146462
0.146417
0.146382
0.146371
0.146355
0.146516
0.14646
0.146363
0.146346
0.146267
0.1461
0.14587
0.145802
0.14594
0.14609
0.146192
0.14625
0.146289
0.146319
0.14632
0.146258
0.146184
0.146219
0.146331
0.146356
0.146445
0.146564
0.146675
0.146659
0.14655
0.146444
0.146425
0.146411
0.146429
0.146398
0.146391
0.146399
0.146443
0.146571
0.146745
0.146574
0.146508
0.154899
0.152778
0.146701
0.136429
0.129297
0.134017
0.154825
0.160006
0.158066
0.156195
0.153918
0.150521
0.147947
0.149161
0.153194
0.155736
0.155582
0.153376
0.148078
0.143581
0.1435
0.144701
0.14059
0.127483
0.124967
0.143526
0.157303
0.156542
0.154386
0.151485
0.145555
0.138091
0.137888
0.145164
0.151479
0.153804
0.154113
0.152806
0.15136
0.150867
0.150578
0.150443
0.1509
0.152179
0.153421
0.154232
0.154541
0.154531
0.154496
0.155083
0.155816
0.155941
0.15468
0.15082
0.146868
0.146965
0.148351
0.149722
0.150113
0.150731
0.151651
0.152647
0.152704
0.152213
0.152474
0.153553
0.154452
0.154988
0.155083
0.154878
0.154254
0.151469
0.145894
0.15096
0.15517
0.15616
0.156548
0.156712
0.156775
0.156833
0.15688
0.156886
0.156796
0.156622
0.15667
0.156442
0.15664
0.156913
0.157131
0.157211
0.157144
0.156963
0.15686
0.156717
0.156497
0.156782
0.157919
0.156734
0.156109
0.156545
0.158019
0.159406
0.15931
0.158505
0.156985
0.155896
0.155905
0.156027
0.156175
0.156419
0.156818
0.157039
0.157041
0.157001
0.156915
0.1567
0.156439
0.156354
0.156577
0.156629
0.156549
0.15617
0.155568
0.155192
0.154779
0.154326
0.153683
0.153632
0.15432
0.155449
0.15615
0.156457
0.156586
0.156522
0.156189
0.155511
0.155006
0.155206
0.15609
0.156706
0.156766
0.156728
0.158902
0.160049
0.159723
0.160397
0.160861
0.160849
0.161347
0.160423
0.15879
0.157595
0.15718
0.157139
0.157236
0.157152
0.156921
0.157174
0.157152
0.157085
0.157072
0.157039
0.157245
0.157688
0.157654
0.157112
0.156851
0.156649
0.156404
0.156119
0.156074
0.15632
0.156636
0.15681
0.15689
0.15693
0.156956
0.156971
0.156981
0.156963
0.156995
0.157022
0.157006
0.157245
0.157382
0.157342
0.157256
0.157184
0.157156
0.157147
0.157113
0.157083
0.157077
0.15708
0.157089
0.157163
0.157327
0.157335
0.157316
0.157177
0.162235
0.160875
0.158009
0.157079
0.158245
0.165109
0.170277
0.16827
0.166308
0.164263
0.160904
0.157006
0.155975
0.159567
0.163828
0.165757
0.164929
0.160708
0.153688
0.14893
0.148883
0.160259
0.167529
0.157059
0.154671
0.166151
0.167351
0.167145
0.166019
0.161963
0.149589
0.140898
0.140211
0.148548
0.157251
0.159859
0.15816
0.156646
0.156587
0.157322
0.159461
0.161474
0.162982
0.164284
0.164899
0.165039
0.164103
0.162123
0.162276
0.164245
0.165748
0.166445
0.166456
0.165633
0.163861
0.162525
0.161851
0.160559
0.159052
0.159466
0.16098
0.1627
0.163422
0.163448
0.163545
0.16442
0.165548
0.165726
0.165126
0.163962