/*--------------------------------*- C++ -*----------------------------------*\
  =========                 |
  \\      /  F ield         | OpenFOAM: The Open Source CFD Toolbox
   \\    /   O peration     | Website:  https://openfoam.org
    \\  /    A nd           | Version:  8
     \\/     M anipulation  |
\*---------------------------------------------------------------------------*/
FoamFile
{
    version     2.0;
    format      ascii;
    class       surfaceSymmTensorField;
    location    "700";
    object      Mf;
}
// * * * * * * * * * * * * * * * * * * * * * * * * * * * * * * * * * * * * * //

dimensions      [-1 3 1 0 0 0 0];

internalField   nonuniform List<symmTensor> 
39700
(
(5.41196e-06 0 0 5.41196e-06 0 5.41196e-06)
(1.91616e-06 0 0 1.91616e-06 0 1.91616e-06)
(3.22311e-06 0 0 3.22311e-06 0 3.22311e-06)
(1.95724e-06 0 0 1.95724e-06 0 1.95724e-06)
(1.63912e-06 0 0 1.63912e-06 0 1.63912e-06)
(1.76649e-06 0 0 1.76649e-06 0 1.76649e-06)
(7.54005e-07 0 0 7.54005e-07 0 7.54005e-07)
(1.27962e-06 0 0 1.27962e-06 0 1.27962e-06)
(3.26757e-07 0 0 3.26757e-07 0 3.26757e-07)
(7.34269e-07 0 0 7.34269e-07 0 7.34269e-07)
(1.45236e-07 0 0 1.45236e-07 0 1.45236e-07)
(3.54374e-07 0 0 3.54374e-07 0 3.54374e-07)
(7.83943e-08 0 0 7.83943e-08 0 7.83943e-08)
(1.65208e-07 0 0 1.65208e-07 0 1.65208e-07)
(6.1302e-08 0 0 6.1302e-08 0 6.1302e-08)
(9.24391e-08 0 0 9.24391e-08 0 9.24391e-08)
(7.527e-08 0 0 7.527e-08 0 7.527e-08)
(7.61613e-08 0 0 7.61613e-08 0 7.61613e-08)
(1.40321e-07 0 0 1.40321e-07 0 1.40321e-07)
(1.01447e-07 0 0 1.01447e-07 0 1.01447e-07)
(3.27116e-07 0 0 3.27116e-07 0 3.27116e-07)
(2.10498e-07 0 0 2.10498e-07 0 2.10498e-07)
(7.08874e-07 0 0 7.08874e-07 0 7.08874e-07)
(5.36684e-07 0 0 5.36684e-07 0 5.36684e-07)
(1.24078e-06 0 0 1.24078e-06 0 1.24078e-06)
(1.19588e-06 0 0 1.19588e-06 0 1.19588e-06)
(1.97966e-06 0 0 1.97966e-06 0 1.97966e-06)
(2.0928e-06 0 0 2.0928e-06 0 2.0928e-06)
(3.45057e-06 0 0 3.45057e-06 0 3.45057e-06)
(3.42493e-06 0 0 3.42493e-06 0 3.42493e-06)
(6.83832e-06 0 0 6.83832e-06 0 6.83832e-06)
(6.06322e-06 0 0 6.06322e-06 0 6.06322e-06)
(1.29063e-05 0 0 1.29063e-05 0 1.29063e-05)
(1.07324e-05 0 0 1.07324e-05 0 1.07324e-05)
(1.69511e-05 0 0 1.69511e-05 0 1.69511e-05)
(1.48841e-05 0 0 1.48841e-05 0 1.48841e-05)
(1.30137e-05 0 0 1.30137e-05 0 1.30137e-05)
(1.29226e-05 0 0 1.29226e-05 0 1.29226e-05)
(6.73287e-06 0 0 6.73287e-06 0 6.73287e-06)
(6.90946e-06 0 0 6.90946e-06 0 6.90946e-06)
(3.18665e-06 0 0 3.18665e-06 0 3.18665e-06)
(2.88415e-06 0 0 2.88415e-06 0 2.88415e-06)
(1.78745e-06 0 0 1.78745e-06 0 1.78745e-06)
(1.31889e-06 0 0 1.31889e-06 0 1.31889e-06)
(1.37237e-06 0 0 1.37237e-06 0 1.37237e-06)
(8.3252e-07 0 0 8.3252e-07 0 8.3252e-07)
(1.51082e-06 0 0 1.51082e-06 0 1.51082e-06)
(7.65293e-07 0 0 7.65293e-07 0 7.65293e-07)
(2.31465e-06 0 0 2.31465e-06 0 2.31465e-06)
(9.74513e-07 0 0 9.74513e-07 0 9.74513e-07)
(4.39723e-06 0 0 4.39723e-06 0 4.39723e-06)
(1.58826e-06 0 0 1.58826e-06 0 1.58826e-06)
(8.452e-06 0 0 8.452e-06 0 8.452e-06)
(3.00096e-06 0 0 3.00096e-06 0 3.00096e-06)
(1.31322e-05 0 0 1.31322e-05 0 1.31322e-05)
(5.58148e-06 0 0 5.58148e-06 0 5.58148e-06)
(1.44376e-05 0 0 1.44376e-05 0 1.44376e-05)
(8.19175e-06 0 0 8.19175e-06 0 8.19175e-06)
(1.12671e-05 0 0 1.12671e-05 0 1.12671e-05)
(8.15796e-06 0 0 8.15796e-06 0 8.15796e-06)
(6.74571e-06 0 0 6.74571e-06 0 6.74571e-06)
(5.63459e-06 0 0 5.63459e-06 0 5.63459e-06)
(3.39044e-06 0 0 3.39044e-06 0 3.39044e-06)
(3.16901e-06 0 0 3.16901e-06 0 3.16901e-06)
(1.59456e-06 0 0 1.59456e-06 0 1.59456e-06)
(1.73324e-06 0 0 1.73324e-06 0 1.73324e-06)
(8.11438e-07 0 0 8.11438e-07 0 8.11438e-07)
(1.00121e-06 0 0 1.00121e-06 0 1.00121e-06)
(5.15464e-07 0 0 5.15464e-07 0 5.15464e-07)
(6.27266e-07 0 0 6.27266e-07 0 6.27266e-07)
(4.40224e-07 0 0 4.40224e-07 0 4.40224e-07)
(4.57761e-07 0 0 4.57761e-07 0 4.57761e-07)
(4.94693e-07 0 0 4.94693e-07 0 4.94693e-07)
(4.1437e-07 0 0 4.1437e-07 0 4.1437e-07)
(6.51073e-07 0 0 6.51073e-07 0 6.51073e-07)
(4.64925e-07 0 0 4.64925e-07 0 4.64925e-07)
(8.41795e-07 0 0 8.41795e-07 0 8.41795e-07)
(6.17782e-07 0 0 6.17782e-07 0 6.17782e-07)
(9.34241e-07 0 0 9.34241e-07 0 9.34241e-07)
(8.50138e-07 0 0 8.50138e-07 0 8.50138e-07)
(8.79478e-07 0 0 8.79478e-07 0 8.79478e-07)
(1.00695e-06 0 0 1.00695e-06 0 1.00695e-06)
(7.70835e-07 0 0 7.70835e-07 0 7.70835e-07)
(9.57017e-07 0 0 9.57017e-07 0 9.57017e-07)
(7.12732e-07 0 0 7.12732e-07 0 7.12732e-07)
(7.86371e-07 0 0 7.86371e-07 0 7.86371e-07)
(7.70769e-07 0 0 7.70769e-07 0 7.70769e-07)
(6.26538e-07 0 0 6.26538e-07 0 6.26538e-07)
(1.03344e-06 0 0 1.03344e-06 0 1.03344e-06)
(5.39877e-07 0 0 5.39877e-07 0 5.39877e-07)
(1.717e-06 0 0 1.717e-06 0 1.717e-06)
(5.51165e-07 0 0 5.51165e-07 0 5.51165e-07)
(3.26237e-06 0 0 3.26237e-06 0 3.26237e-06)
(6.795e-07 0 0 6.795e-07 0 6.795e-07)
(5.94056e-06 0 0 5.94056e-06 0 5.94056e-06)
(9.39609e-07 0 0 9.39609e-07 0 9.39609e-07)
(8.18425e-06 0 0 8.18425e-06 0 8.18425e-06)
(1.29828e-06 0 0 1.29828e-06 0 1.29828e-06)
(7.26706e-06 0 0 7.26706e-06 0 7.26706e-06)
(1.62807e-06 0 0 1.62807e-06 0 1.62807e-06)
(4.50444e-06 0 0 4.50444e-06 0 4.50444e-06)
(1.77568e-06 0 0 1.77568e-06 0 1.77568e-06)
(2.65166e-06 0 0 2.65166e-06 0 2.65166e-06)
(1.7305e-06 0 0 1.7305e-06 0 1.7305e-06)
(2.04381e-06 0 0 2.04381e-06 0 2.04381e-06)
(1.69677e-06 0 0 1.69677e-06 0 1.69677e-06)
(2.40497e-06 0 0 2.40497e-06 0 2.40497e-06)
(2.07018e-06 0 0 2.07018e-06 0 2.07018e-06)
(4.18238e-06 0 0 4.18238e-06 0 4.18238e-06)
(3.57042e-06 0 0 3.57042e-06 0 3.57042e-06)
(7.85707e-06 0 0 7.85707e-06 0 7.85707e-06)
(7.02801e-06 0 0 7.02801e-06 0 7.02801e-06)
(8.381e-06 0 0 8.381e-06 0 8.381e-06)
(9.44495e-06 0 0 9.44495e-06 0 9.44495e-06)
(3.28231e-06 0 0 3.28231e-06 0 3.28231e-06)
(5.61041e-06 0 0 5.61041e-06 0 5.61041e-06)
(7.37193e-07 0 0 7.37193e-07 0 7.37193e-07)
(1.52521e-06 0 0 1.52521e-06 0 1.52521e-06)
(2.31146e-07 0 0 2.31146e-07 0 2.31146e-07)
(3.31536e-07 0 0 3.31536e-07 0 3.31536e-07)
(1.65821e-07 0 0 1.65821e-07 0 1.65821e-07)
(1.24804e-07 0 0 1.24804e-07 0 1.24804e-07)
(2.78846e-07 0 0 2.78846e-07 0 2.78846e-07)
(1.37761e-07 0 0 1.37761e-07 0 1.37761e-07)
(1.13672e-06 0 0 1.13672e-06 0 1.13672e-06)
(4.12462e-07 0 0 4.12462e-07 0 4.12462e-07)
(6.86626e-06 0 0 6.86626e-06 0 6.86626e-06)
(1.79481e-06 0 0 1.79481e-06 0 1.79481e-06)
(2.49142e-05 0 0 2.49142e-05 0 2.49142e-05)
(5.91146e-06 0 0 5.91146e-06 0 5.91146e-06)
(3.15601e-05 0 0 3.15601e-05 0 3.15601e-05)
(1.12329e-05 0 0 1.12329e-05 0 1.12329e-05)
(1.845e-05 0 0 1.845e-05 0 1.845e-05)
(1.3254e-05 0 0 1.3254e-05 0 1.3254e-05)
(8.52145e-06 0 0 8.52145e-06 0 8.52145e-06)
(1.13033e-05 0 0 1.13033e-05 0 1.13033e-05)
(4.08094e-06 0 0 4.08094e-06 0 4.08094e-06)
(7.64159e-06 0 0 7.64159e-06 0 7.64159e-06)
(2.1003e-06 0 0 2.1003e-06 0 2.1003e-06)
(4.53583e-06 0 0 4.53583e-06 0 4.53583e-06)
(1.12487e-06 0 0 1.12487e-06 0 1.12487e-06)
(2.49722e-06 0 0 2.49722e-06 0 2.49722e-06)
(6.36137e-07 0 0 6.36137e-07 0 6.36137e-07)
(1.27047e-06 0 0 1.27047e-06 0 1.27047e-06)
(4.02603e-07 0 0 4.02603e-07 0 4.02603e-07)
(5.93072e-07 0 0 5.93072e-07 0 5.93072e-07)
(2.96361e-07 0 0 2.96361e-07 0 2.96361e-07)
(2.51019e-07 0 0 2.51019e-07 0 2.51019e-07)
(2.5622e-07 0 0 2.5622e-07 0 2.5622e-07)
(1.08658e-07 0 0 1.08658e-07 0 1.08658e-07)
(2.68202e-07 0 0 2.68202e-07 0 2.68202e-07)
(6.59859e-08 0 0 6.59859e-08 0 6.59859e-08)
(3.68067e-07 0 0 3.68067e-07 0 3.68067e-07)
(7.3118e-08 0 0 7.3118e-08 0 7.3118e-08)
(7.21832e-07 0 0 7.21832e-07 0 7.21832e-07)
(1.56577e-07 0 0 1.56577e-07 0 1.56577e-07)
(2.06845e-06 0 0 2.06845e-06 0 2.06845e-06)
(5.6095e-07 0 0 5.6095e-07 0 5.6095e-07)
(7.56521e-06 0 0 7.56521e-06 0 7.56521e-06)
(2.53218e-06 0 0 2.53218e-06 0 2.53218e-06)
(2.57586e-05 0 0 2.57586e-05 0 2.57586e-05)
(1.01743e-05 0 0 1.01743e-05 0 1.01743e-05)
(5.88998e-05 0 0 5.88998e-05 0 5.88998e-05)
(2.6694e-05 0 0 2.6694e-05 0 2.6694e-05)
(7.92895e-05 0 0 7.92895e-05 0 7.92895e-05)
(3.90319e-05 0 0 3.90319e-05 0 3.90319e-05)
(6.6069e-05 0 0 6.6069e-05 0 6.6069e-05)
(3.27541e-05 0 0 3.27541e-05 0 3.27541e-05)
(3.68373e-05 0 0 3.68373e-05 0 3.68373e-05)
(1.85895e-05 0 0 1.85895e-05 0 1.85895e-05)
(1.51406e-05 0 0 1.51406e-05 0 1.51406e-05)
(8.74382e-06 0 0 8.74382e-06 0 8.74382e-06)
(5.73956e-06 0 0 5.73956e-06 0 5.73956e-06)
(3.95755e-06 0 0 3.95755e-06 0 3.95755e-06)
(2.72663e-06 0 0 2.72663e-06 0 2.72663e-06)
(1.90211e-06 0 0 1.90211e-06 0 1.90211e-06)
(1.92575e-06 0 0 1.92575e-06 0 1.92575e-06)
(1.11318e-06 0 0 1.11318e-06 0 1.11318e-06)
(1.90267e-06 0 0 1.90267e-06 0 1.90267e-06)
(9.08218e-07 0 0 9.08218e-07 0 9.08218e-07)
(1.91416e-06 0 0 1.91416e-06 0 1.91416e-06)
(1.01453e-06 0 0 1.01453e-06 0 1.01453e-06)
(1.18763e-06 0 0 1.18763e-06 0 1.18763e-06)
(1.21975e-06 0 0 1.21975e-06 0 1.21975e-06)
(4.14259e-07 0 0 4.14259e-07 0 4.14259e-07)
(9.91128e-07 0 0 9.91128e-07 0 9.91128e-07)
(1.44802e-07 0 0 1.44802e-07 0 1.44802e-07)
(4.24469e-07 0 0 4.24469e-07 0 4.24469e-07)
(9.07916e-08 0 0 9.07916e-08 0 9.07916e-08)
(1.71748e-07 0 0 1.71748e-07 0 1.71748e-07)
(1.17526e-07 0 0 1.17526e-07 0 1.17526e-07)
(1.43577e-07 0 0 1.43577e-07 0 1.43577e-07)
(3.12623e-07 0 0 3.12623e-07 0 3.12623e-07)
(2.99352e-07 0 0 2.99352e-07 0 2.99352e-07)
(1.16587e-06 0 0 1.16587e-06 0 1.16587e-06)
(9.88029e-07 0 0 9.88029e-07 0 9.88029e-07)
(2.72507e-06 0 0 2.72507e-06 0 2.72507e-06)
(2.67439e-06 0 0 2.67439e-06 0 2.67439e-06)
(2.44749e-06 0 0 2.44749e-06 0 2.44749e-06)
(3.64029e-06 0 0 3.64029e-06 0 3.64029e-06)
(1.18222e-06 0 0 1.18222e-06 0 1.18222e-06)
(2.34214e-06 0 0 2.34214e-06 0 2.34214e-06)
(5.64115e-07 0 0 5.64115e-07 0 5.64115e-07)
(1.05597e-06 0 0 1.05597e-06 0 1.05597e-06)
(3.74818e-07 0 0 3.74818e-07 0 3.74818e-07)
(5.55632e-07 0 0 5.55632e-07 0 5.55632e-07)
(3.75646e-07 0 0 3.75646e-07 0 3.75646e-07)
(4.46331e-07 0 0 4.46331e-07 0 4.46331e-07)
(5.38107e-07 0 0 5.38107e-07 0 5.38107e-07)
(5.15519e-07 0 0 5.15519e-07 0 5.15519e-07)
(9.54208e-07 0 0 9.54208e-07 0 9.54208e-07)
(6.4899e-07 0 0 6.4899e-07 0 6.4899e-07)
(1.7175e-06 0 0 1.7175e-06 0 1.7175e-06)
(6.96402e-07 0 0 6.96402e-07 0 6.96402e-07)
(2.51572e-06 0 0 2.51572e-06 0 2.51572e-06)
(7.22493e-07 0 0 7.22493e-07 0 7.22493e-07)
(2.44904e-06 0 0 2.44904e-06 0 2.44904e-06)
(9.26841e-07 0 0 9.26841e-07 0 9.26841e-07)
(1.481e-06 0 0 1.481e-06 0 1.481e-06)
(1.27748e-06 0 0 1.27748e-06 0 1.27748e-06)
(6.64555e-07 0 0 6.64555e-07 0 6.64555e-07)
(1.19761e-06 0 0 1.19761e-06 0 1.19761e-06)
(3.1191e-07 0 0 3.1191e-07 0 3.1191e-07)
(6.82927e-07 0 0 6.82927e-07 0 6.82927e-07)
(2.05046e-07 0 0 2.05046e-07 0 2.05046e-07)
(3.66143e-07 0 0 3.66143e-07 0 3.66143e-07)
(2.11499e-07 0 0 2.11499e-07 0 2.11499e-07)
(2.79896e-07 0 0 2.79896e-07 0 2.79896e-07)
(3.30006e-07 0 0 3.30006e-07 0 3.30006e-07)
(3.39574e-07 0 0 3.39574e-07 0 3.39574e-07)
(6.33337e-07 0 0 6.33337e-07 0 6.33337e-07)
(5.335e-07 0 0 5.335e-07 0 5.335e-07)
(1.03557e-06 0 0 1.03557e-06 0 1.03557e-06)
(7.65064e-07 0 0 7.65064e-07 0 7.65064e-07)
(1.06634e-06 0 0 1.06634e-06 0 1.06634e-06)
(7.7146e-07 0 0 7.7146e-07 0 7.7146e-07)
(6.9849e-07 0 0 6.9849e-07 0 6.9849e-07)
(5.32529e-07 0 0 5.32529e-07 0 5.32529e-07)
(3.83429e-07 0 0 3.83429e-07 0 3.83429e-07)
(3.02863e-07 0 0 3.02863e-07 0 3.02863e-07)
(2.35921e-07 0 0 2.35921e-07 0 2.35921e-07)
(1.85275e-07 0 0 1.85275e-07 0 1.85275e-07)
(1.893e-07 0 0 1.893e-07 0 1.893e-07)
(1.49542e-07 0 0 1.49542e-07 0 1.49542e-07)
(1.97902e-07 0 0 1.97902e-07 0 1.97902e-07)
(1.66595e-07 0 0 1.66595e-07 0 1.66595e-07)
(2.35542e-07 0 0 2.35542e-07 0 2.35542e-07)
(2.23535e-07 0 0 2.23535e-07 0 2.23535e-07)
(2.52191e-07 0 0 2.52191e-07 0 2.52191e-07)
(2.79745e-07 0 0 2.79745e-07 0 2.79745e-07)
(2.00371e-07 0 0 2.00371e-07 0 2.00371e-07)
(2.55973e-07 0 0 2.55973e-07 0 2.55973e-07)
(1.22472e-07 0 0 1.22472e-07 0 1.22472e-07)
(1.59274e-07 0 0 1.59274e-07 0 1.59274e-07)
(7.36202e-08 0 0 7.36202e-08 0 7.36202e-08)
(8.14645e-08 0 0 8.14645e-08 0 8.14645e-08)
(5.49583e-08 0 0 5.49583e-08 0 5.49583e-08)
(4.92356e-08 0 0 4.92356e-08 0 4.92356e-08)
(5.50347e-08 0 0 5.50347e-08 0 5.50347e-08)
(4.68537e-08 0 0 4.68537e-08 0 4.68537e-08)
(6.88344e-08 0 0 6.88344e-08 0 6.88344e-08)
(6.97426e-08 0 0 6.97426e-08 0 6.97426e-08)
(9.27058e-08 0 0 9.27058e-08 0 9.27058e-08)
(1.21276e-07 0 0 1.21276e-07 0 1.21276e-07)
(1.27542e-07 0 0 1.27542e-07 0 1.27542e-07)
(1.8937e-07 0 0 1.8937e-07 0 1.8937e-07)
(2.0286e-07 0 0 2.0286e-07 0 2.0286e-07)
(2.84907e-07 0 0 2.84907e-07 0 2.84907e-07)
(4.32281e-07 0 0 4.32281e-07 0 4.32281e-07)
(5.33019e-07 0 0 5.33019e-07 0 5.33019e-07)
(1.22577e-06 0 0 1.22577e-06 0 1.22577e-06)
(1.2684e-06 0 0 1.2684e-06 0 1.2684e-06)
(3.3169e-06 0 0 3.3169e-06 0 3.3169e-06)
(2.29937e-06 0 0 2.29937e-06 0 2.29937e-06)
(4.77086e-06 0 0 4.77086e-06 0 4.77086e-06)
(2.15376e-06 0 0 2.15376e-06 0 2.15376e-06)
(2.92235e-06 0 0 2.92235e-06 0 2.92235e-06)
(1.46818e-06 0 0 1.46818e-06 0 1.46818e-06)
(1.24931e-06 0 0 1.24931e-06 0 1.24931e-06)
(9.37027e-07 0 0 9.37027e-07 0 9.37027e-07)
(6.7671e-07 0 0 6.7671e-07 0 6.7671e-07)
(6.14524e-07 0 0 6.14524e-07 0 6.14524e-07)
(5.90893e-07 0 0 5.90893e-07 0 5.90893e-07)
(5.09549e-07 0 0 5.09549e-07 0 5.09549e-07)
(8.18985e-07 0 0 8.18985e-07 0 8.18985e-07)
(6.64401e-07 0 0 6.64401e-07 0 6.64401e-07)
(1.4881e-06 0 0 1.4881e-06 0 1.4881e-06)
(1.28337e-06 0 0 1.28337e-06 0 1.28337e-06)
(2.53596e-06 0 0 2.53596e-06 0 2.53596e-06)
(2.69694e-06 0 0 2.69694e-06 0 2.69694e-06)
(2.97597e-06 0 0 2.97597e-06 0 2.97597e-06)
(4.28882e-06 0 0 4.28882e-06 0 4.28882e-06)
(2.01907e-06 0 0 2.01907e-06 0 2.01907e-06)
(4.08157e-06 0 0 4.08157e-06 0 4.08157e-06)
(8.24247e-07 0 0 8.24247e-07 0 8.24247e-07)
(2.20495e-06 0 0 2.20495e-06 0 2.20495e-06)
(2.82971e-07 0 0 2.82971e-07 0 2.82971e-07)
(8.00221e-07 0 0 8.00221e-07 0 8.00221e-07)
(1.32948e-07 0 0 1.32948e-07 0 1.32948e-07)
(2.88818e-07 0 0 2.88818e-07 0 2.88818e-07)
(1.14945e-07 0 0 1.14945e-07 0 1.14945e-07)
(1.66243e-07 0 0 1.66243e-07 0 1.66243e-07)
(1.94243e-07 0 0 1.94243e-07 0 1.94243e-07)
(2.11783e-07 0 0 2.11783e-07 0 2.11783e-07)
(6.04652e-07 0 0 6.04652e-07 0 6.04652e-07)
(5.42206e-07 0 0 5.42206e-07 0 5.42206e-07)
(2.40207e-06 0 0 2.40207e-06 0 2.40207e-06)
(1.65446e-06 0 0 1.65446e-06 0 1.65446e-06)
(7.87232e-06 0 0 7.87232e-06 0 7.87232e-06)
(3.79356e-06 0 0 3.79356e-06 0 3.79356e-06)
(1.91068e-05 0 0 1.91068e-05 0 1.91068e-05)
(6.22223e-06 0 0 6.22223e-06 0 6.22223e-06)
(3.8994e-05 0 0 3.8994e-05 0 3.8994e-05)
(8.2219e-06 0 0 8.2219e-06 0 8.2219e-06)
(6.62536e-05 0 0 6.62536e-05 0 6.62536e-05)
(9.3086e-06 0 0 9.3086e-06 0 9.3086e-06)
(6.87783e-05 0 0 6.87783e-05 0 6.87783e-05)
(9.17767e-06 0 0 9.17767e-06 0 9.17767e-06)
(3.26769e-05 0 0 3.26769e-05 0 3.26769e-05)
(8.13821e-06 0 0 8.13821e-06 0 8.13821e-06)
(9.18766e-06 0 0 9.18766e-06 0 9.18766e-06)
(6.61459e-06 0 0 6.61459e-06 0 6.61459e-06)
(2.68948e-06 0 0 2.68948e-06 0 2.68948e-06)
(4.41463e-06 0 0 4.41463e-06 0 4.41463e-06)
(1.12146e-06 0 0 1.12146e-06 0 1.12146e-06)
(2.28291e-06 0 0 2.28291e-06 0 2.28291e-06)
(6.45784e-07 0 0 6.45784e-07 0 6.45784e-07)
(1.25674e-06 0 0 1.25674e-06 0 1.25674e-06)
(4.28095e-07 0 0 4.28095e-07 0 4.28095e-07)
(8.06357e-07 0 0 8.06357e-07 0 8.06357e-07)
(2.90635e-07 0 0 2.90635e-07 0 2.90635e-07)
(5.07868e-07 0 0 5.07868e-07 0 5.07868e-07)
(2.26259e-07 0 0 2.26259e-07 0 2.26259e-07)
(3.19515e-07 0 0 3.19515e-07 0 3.19515e-07)
(2.40083e-07 0 0 2.40083e-07 0 2.40083e-07)
(2.59204e-07 0 0 2.59204e-07 0 2.59204e-07)
(3.55657e-07 0 0 3.55657e-07 0 3.55657e-07)
(3.22443e-07 0 0 3.22443e-07 0 3.22443e-07)
(5.94953e-07 0 0 5.94953e-07 0 5.94953e-07)
(5.26981e-07 0 0 5.26981e-07 0 5.26981e-07)
(7.52162e-07 0 0 7.52162e-07 0 7.52162e-07)
(7.71316e-07 0 0 7.71316e-07 0 7.71316e-07)
(6.19332e-07 0 0 6.19332e-07 0 6.19332e-07)
(7.73908e-07 0 0 7.73908e-07 0 7.73908e-07)
(4.63453e-07 0 0 4.63453e-07 0 4.63453e-07)
(5.84941e-07 0 0 5.84941e-07 0 5.84941e-07)
(4.65885e-07 0 0 4.65885e-07 0 4.65885e-07)
(4.90435e-07 0 0 4.90435e-07 0 4.90435e-07)
(7.36369e-07 0 0 7.36369e-07 0 7.36369e-07)
(6.50984e-07 0 0 6.50984e-07 0 6.50984e-07)
(1.71977e-06 0 0 1.71977e-06 0 1.71977e-06)
(1.38996e-06 0 0 1.38996e-06 0 1.38996e-06)
(4.19711e-06 0 0 4.19711e-06 0 4.19711e-06)
(3.40677e-06 0 0 3.40677e-06 0 3.40677e-06)
(6.72754e-06 0 0 6.72754e-06 0 6.72754e-06)
(6.37294e-06 0 0 6.37294e-06 0 6.37294e-06)
(5.9534e-06 0 0 5.9534e-06 0 5.9534e-06)
(7.54462e-06 0 0 7.54462e-06 0 7.54462e-06)
(3.81432e-06 0 0 3.81432e-06 0 3.81432e-06)
(6.13274e-06 0 0 6.13274e-06 0 6.13274e-06)
(2.69817e-06 0 0 2.69817e-06 0 2.69817e-06)
(4.35774e-06 0 0 4.35774e-06 0 4.35774e-06)
(2.77787e-06 0 0 2.77787e-06 0 2.77787e-06)
(3.7413e-06 0 0 3.7413e-06 0 3.7413e-06)
(4.557e-06 0 0 4.557e-06 0 4.557e-06)
(4.96573e-06 0 0 4.96573e-06 0 4.96573e-06)
(1.11388e-05 0 0 1.11388e-05 0 1.11388e-05)
(9.58857e-06 0 0 9.58857e-06 0 9.58857e-06)
(3.03112e-05 0 0 3.03112e-05 0 3.03112e-05)
(1.8252e-05 0 0 1.8252e-05 0 1.8252e-05)
(5.9035e-05 0 0 5.9035e-05 0 5.9035e-05)
(2.33064e-05 0 0 2.33064e-05 0 2.33064e-05)
(5.95309e-05 0 0 5.95309e-05 0 5.95309e-05)
(1.79742e-05 0 0 1.79742e-05 0 1.79742e-05)
(3.12789e-05 0 0 3.12789e-05 0 3.12789e-05)
(9.07532e-06 0 0 9.07532e-06 0 9.07532e-06)
(1.08826e-05 0 0 1.08826e-05 0 1.08826e-05)
(3.7081e-06 0 0 3.7081e-06 0 3.7081e-06)
(3.29252e-06 0 0 3.29252e-06 0 3.29252e-06)
(1.64525e-06 0 0 1.64525e-06 0 1.64525e-06)
(1.10301e-06 0 0 1.10301e-06 0 1.10301e-06)
(9.69105e-07 0 0 9.69105e-07 0 9.69105e-07)
(5.01183e-07 0 0 5.01183e-07 0 5.01183e-07)
(7.03897e-07 0 0 7.03897e-07 0 7.03897e-07)
(3.50095e-07 0 0 3.50095e-07 0 3.50095e-07)
(5.46029e-07 0 0 5.46029e-07 0 5.46029e-07)
(3.86522e-07 0 0 3.86522e-07 0 3.86522e-07)
(5.39481e-07 0 0 5.39481e-07 0 5.39481e-07)
(6.38836e-07 0 0 6.38836e-07 0 6.38836e-07)
(7.78067e-07 0 0 7.78067e-07 0 7.78067e-07)
(1.35231e-06 0 0 1.35231e-06 0 1.35231e-06)
(1.37682e-06 0 0 1.37682e-06 0 1.37682e-06)
(2.91414e-06 0 0 2.91414e-06 0 2.91414e-06)
(2.09457e-06 0 0 2.09457e-06 0 2.09457e-06)
(5.25324e-06 0 0 5.25324e-06 0 5.25324e-06)
(2.26172e-06 0 0 2.26172e-06 0 2.26172e-06)
(7.16313e-06 0 0 7.16313e-06 0 7.16313e-06)
(2.03749e-06 0 0 2.03749e-06 0 2.03749e-06)
(1.89172e-06 0 0 1.89172e-06 0 1.89172e-06)
(1.17921e-06 0 0 1.17921e-06 0 1.17921e-06)
(9.90507e-07 0 0 9.90507e-07 0 9.90507e-07)
(1.3042e-06 0 0 1.3042e-06 0 1.3042e-06)
(1.19705e-06 0 0 1.19705e-06 0 1.19705e-06)
(1.35596e-06 0 0 1.35596e-06 0 1.35596e-06)
(1.42386e-06 0 0 1.42386e-06 0 1.42386e-06)
(1.2238e-06 0 0 1.2238e-06 0 1.2238e-06)
(1.60547e-06 0 0 1.60547e-06 0 1.60547e-06)
(8.90153e-07 0 0 8.90153e-07 0 8.90153e-07)
(1.56444e-06 0 0 1.56444e-06 0 1.56444e-06)
(5.02634e-07 0 0 5.02634e-07 0 5.02634e-07)
(1.15069e-06 0 0 1.15069e-06 0 1.15069e-06)
(2.43021e-07 0 0 2.43021e-07 0 2.43021e-07)
(6.14119e-07 0 0 6.14119e-07 0 6.14119e-07)
(1.30971e-07 0 0 1.30971e-07 0 1.30971e-07)
(2.74097e-07 0 0 2.74097e-07 0 2.74097e-07)
(1.03073e-07 0 0 1.03073e-07 0 1.03073e-07)
(1.40068e-07 0 0 1.40068e-07 0 1.40068e-07)
(1.33664e-07 0 0 1.33664e-07 0 1.33664e-07)
(1.2197e-07 0 0 1.2197e-07 0 1.2197e-07)
(2.81144e-07 0 0 2.81144e-07 0 2.81144e-07)
(2.29272e-07 0 0 2.29272e-07 0 2.29272e-07)
(7.75908e-07 0 0 7.75908e-07 0 7.75908e-07)
(7.35082e-07 0 0 7.35082e-07 0 7.35082e-07)
(1.96815e-06 0 0 1.96815e-06 0 1.96815e-06)
(2.32715e-06 0 0 2.32715e-06 0 2.32715e-06)
(3.77832e-06 0 0 3.77832e-06 0 3.77832e-06)
(5.18672e-06 0 0 5.18672e-06 0 5.18672e-06)
(5.98449e-06 0 0 5.98449e-06 0 5.98449e-06)
(8.35222e-06 0 0 8.35222e-06 0 8.35222e-06)
(8.93897e-06 0 0 8.93897e-06 0 8.93897e-06)
(1.13449e-05 0 0 1.13449e-05 0 1.13449e-05)
(1.20657e-05 0 0 1.20657e-05 0 1.20657e-05)
(1.32058e-05 0 0 1.32058e-05 0 1.32058e-05)
(1.16855e-05 0 0 1.16855e-05 0 1.16855e-05)
(1.17666e-05 0 0 1.17666e-05 0 1.17666e-05)
(6.88369e-06 0 0 6.88369e-06 0 6.88369e-06)
(7.54504e-06 0 0 7.54504e-06 0 7.54504e-06)
(2.91608e-06 0 0 2.91608e-06 0 2.91608e-06)
(3.58894e-06 0 0 3.58894e-06 0 3.58894e-06)
(1.26402e-06 0 0 1.26402e-06 0 1.26402e-06)
(1.46229e-06 0 0 1.46229e-06 0 1.46229e-06)
(7.14324e-07 0 0 7.14324e-07 0 7.14324e-07)
(6.38929e-07 0 0 6.38929e-07 0 6.38929e-07)
(5.62052e-07 0 0 5.62052e-07 0 5.62052e-07)
(3.5421e-07 0 0 3.5421e-07 0 3.5421e-07)
(5.98461e-07 0 0 5.98461e-07 0 5.98461e-07)
(2.59838e-07 0 0 2.59838e-07 0 2.59838e-07)
(8.17164e-07 0 0 8.17164e-07 0 8.17164e-07)
(2.4675e-07 0 0 2.4675e-07 0 2.4675e-07)
(1.35975e-06 0 0 1.35975e-06 0 1.35975e-06)
(2.938e-07 0 0 2.938e-07 0 2.938e-07)
(2.53759e-06 0 0 2.53759e-06 0 2.53759e-06)
(4.15268e-07 0 0 4.15268e-07 0 4.15268e-07)
(4.44269e-06 0 0 4.44269e-06 0 4.44269e-06)
(6.31793e-07 0 0 6.31793e-07 0 6.31793e-07)
(5.70158e-06 0 0 5.70158e-06 0 5.70158e-06)
(9.1552e-07 0 0 9.1552e-07 0 9.1552e-07)
(4.73259e-06 0 0 4.73259e-06 0 4.73259e-06)
(1.14304e-06 0 0 1.14304e-06 0 1.14304e-06)
(2.90032e-06 0 0 2.90032e-06 0 2.90032e-06)
(1.17867e-06 0 0 1.17867e-06 0 1.17867e-06)
(1.67347e-06 0 0 1.67347e-06 0 1.67347e-06)
(1.02828e-06 0 0 1.02828e-06 0 1.02828e-06)
(1.05417e-06 0 0 1.05417e-06 0 1.05417e-06)
(8.18186e-07 0 0 8.18186e-07 0 8.18186e-07)
(7.34951e-07 0 0 7.34951e-07 0 7.34951e-07)
(6.34954e-07 0 0 6.34954e-07 0 6.34954e-07)
(5.43843e-07 0 0 5.43843e-07 0 5.43843e-07)
(4.81731e-07 0 0 4.81731e-07 0 4.81731e-07)
(4.29871e-07 0 0 4.29871e-07 0 4.29871e-07)
(3.52464e-07 0 0 3.52464e-07 0 3.52464e-07)
(3.93278e-07 0 0 3.93278e-07 0 3.93278e-07)
(2.63843e-07 0 0 2.63843e-07 0 2.63843e-07)
(4.47697e-07 0 0 4.47697e-07 0 4.47697e-07)
(2.31596e-07 0 0 2.31596e-07 0 2.31596e-07)
(6.22263e-07 0 0 6.22263e-07 0 6.22263e-07)
(2.69799e-07 0 0 2.69799e-07 0 2.69799e-07)
(9.09923e-07 0 0 9.09923e-07 0 9.09923e-07)
(4.15634e-07 0 0 4.15634e-07 0 4.15634e-07)
(1.10991e-06 0 0 1.10991e-06 0 1.10991e-06)
(7.03685e-07 0 0 7.03685e-07 0 7.03685e-07)
(9.81083e-07 0 0 9.81083e-07 0 9.81083e-07)
(9.89651e-07 0 0 9.89651e-07 0 9.89651e-07)
(6.82741e-07 0 0 6.82741e-07 0 6.82741e-07)
(9.77517e-07 0 0 9.77517e-07 0 9.77517e-07)
(4.64913e-07 0 0 4.64913e-07 0 4.64913e-07)
(7.35667e-07 0 0 7.35667e-07 0 7.35667e-07)
(3.70512e-07 0 0 3.70512e-07 0 3.70512e-07)
(5.26377e-07 0 0 5.26377e-07 0 5.26377e-07)
(3.69877e-07 0 0 3.69877e-07 0 3.69877e-07)
(4.11741e-07 0 0 4.11741e-07 0 4.11741e-07)
(4.48548e-07 0 0 4.48548e-07 0 4.48548e-07)
(3.3692e-07 0 0 3.3692e-07 0 3.3692e-07)
(6.00171e-07 0 0 6.00171e-07 0 6.00171e-07)
(2.65616e-07 0 0 2.65616e-07 0 2.65616e-07)
(7.92212e-07 0 0 7.92212e-07 0 7.92212e-07)
(2.29937e-07 0 0 2.29937e-07 0 2.29937e-07)
(9.61742e-07 0 0 9.61742e-07 0 9.61742e-07)
(2.7023e-07 0 0 2.7023e-07 0 2.7023e-07)
(1.0881e-06 0 0 1.0881e-06 0 1.0881e-06)
(4.24931e-07 0 0 4.24931e-07 0 4.24931e-07)
(1.26566e-06 0 0 1.26566e-06 0 1.26566e-06)
(7.03501e-07 0 0 7.03501e-07 0 7.03501e-07)
(1.7149e-06 0 0 1.7149e-06 0 1.7149e-06)
(1.05136e-06 0 0 1.05136e-06 0 1.05136e-06)
(2.87917e-06 0 0 2.87917e-06 0 2.87917e-06)
(1.51569e-06 0 0 1.51569e-06 0 1.51569e-06)
(5.45647e-06 0 0 5.45647e-06 0 5.45647e-06)
(2.29102e-06 0 0 2.29102e-06 0 2.29102e-06)
(8.27195e-06 0 0 8.27195e-06 0 8.27195e-06)
(3.52983e-06 0 0 3.52983e-06 0 3.52983e-06)
(6.06799e-06 0 0 6.06799e-06 0 6.06799e-06)
(4.39551e-06 0 0 4.39551e-06 0 4.39551e-06)
(1.88956e-06 0 0 1.88956e-06 0 1.88956e-06)
(3.0577e-06 0 0 3.0577e-06 0 3.0577e-06)
(4.31889e-07 0 0 4.31889e-07 0 4.31889e-07)
(1.04895e-06 0 0 1.04895e-06 0 1.04895e-06)
(1.49198e-07 0 0 1.49198e-07 0 1.49198e-07)
(2.67303e-07 0 0 2.67303e-07 0 2.67303e-07)
(1.08215e-07 0 0 1.08215e-07 0 1.08215e-07)
(1.00783e-07 0 0 1.00783e-07 0 1.00783e-07)
(1.6401e-07 0 0 1.6401e-07 0 1.6401e-07)
(8.44639e-08 0 0 8.44639e-08 0 8.44639e-08)
(4.75759e-07 0 0 4.75759e-07 0 4.75759e-07)
(1.34974e-07 0 0 1.34974e-07 0 1.34974e-07)
(1.7221e-06 0 0 1.7221e-06 0 1.7221e-06)
(2.58544e-07 0 0 2.58544e-07 0 2.58544e-07)
(4.58612e-06 0 0 4.58612e-06 0 4.58612e-06)
(4.27865e-07 0 0 4.27865e-07 0 4.27865e-07)
(7.53083e-06 0 0 7.53083e-06 0 7.53083e-06)
(6.11414e-07 0 0 6.11414e-07 0 6.11414e-07)
(9.11424e-06 0 0 9.11424e-06 0 9.11424e-06)
(9.33574e-07 0 0 9.33574e-07 0 9.33574e-07)
(9.80568e-06 0 0 9.80568e-06 0 9.80568e-06)
(1.7803e-06 0 0 1.7803e-06 0 1.7803e-06)
(9.40836e-06 0 0 9.40836e-06 0 9.40836e-06)
(3.80438e-06 0 0 3.80438e-06 0 3.80438e-06)
(6.90662e-06 0 0 6.90662e-06 0 6.90662e-06)
(6.41691e-06 0 0 6.41691e-06 0 6.41691e-06)
(3.34937e-06 0 0 3.34937e-06 0 3.34937e-06)
(6.12509e-06 0 0 6.12509e-06 0 6.12509e-06)
(1.10956e-06 0 0 1.10956e-06 0 1.10956e-06)
(3.07905e-06 0 0 3.07905e-06 0 3.07905e-06)
(3.13866e-07 0 0 3.13866e-07 0 3.13866e-07)
(9.56968e-07 0 0 9.56968e-07 0 9.56968e-07)
(1.01908e-07 0 0 1.01908e-07 0 1.01908e-07)
(2.41607e-07 0 0 2.41607e-07 0 2.41607e-07)
(4.88876e-08 0 0 4.88876e-08 0 4.88876e-08)
(6.89332e-08 0 0 6.89332e-08 0 6.89332e-08)
(3.98363e-08 0 0 3.98363e-08 0 3.98363e-08)
(3.13548e-08 0 0 3.13548e-08 0 3.13548e-08)
(5.76493e-08 0 0 5.76493e-08 0 5.76493e-08)
(2.88026e-08 0 0 2.88026e-08 0 2.88026e-08)
(1.47407e-07 0 0 1.47407e-07 0 1.47407e-07)
(5.39968e-08 0 0 5.39968e-08 0 5.39968e-08)
(5.90265e-07 0 0 5.90265e-07 0 5.90265e-07)
(1.69947e-07 0 0 1.69947e-07 0 1.69947e-07)
(2.76993e-06 0 0 2.76993e-06 0 2.76993e-06)
(6.69098e-07 0 0 6.69098e-07 0 6.69098e-07)
(1.03171e-05 0 0 1.03171e-05 0 1.03171e-05)
(2.41129e-06 0 0 2.41129e-06 0 2.41129e-06)
(2.16903e-05 0 0 2.16903e-05 0 2.16903e-05)
(5.91717e-06 0 0 5.91717e-06 0 5.91717e-06)
(2.29681e-05 0 0 2.29681e-05 0 2.29681e-05)
(8.06329e-06 0 0 8.06329e-06 0 8.06329e-06)
(1.44532e-05 0 0 1.44532e-05 0 1.44532e-05)
(6.19503e-06 0 0 6.19503e-06 0 6.19503e-06)
(7.0915e-06 0 0 7.0915e-06 0 7.0915e-06)
(3.51955e-06 0 0 3.51955e-06 0 3.51955e-06)
(3.32226e-06 0 0 3.32226e-06 0 3.32226e-06)
(2.11416e-06 0 0 2.11416e-06 0 2.11416e-06)
(1.65513e-06 0 0 1.65513e-06 0 1.65513e-06)
(1.56443e-06 0 0 1.56443e-06 0 1.56443e-06)
(9.458e-07 0 0 9.458e-07 0 9.458e-07)
(1.23968e-06 0 0 1.23968e-06 0 1.23968e-06)
(6.75627e-07 0 0 6.75627e-07 0 6.75627e-07)
(9.4293e-07 0 0 9.4293e-07 0 9.4293e-07)
(6.40552e-07 0 0 6.40552e-07 0 6.40552e-07)
(7.71267e-07 0 0 7.71267e-07 0 7.71267e-07)
(7.79366e-07 0 0 7.79366e-07 0 7.79366e-07)
(7.50268e-07 0 0 7.50268e-07 0 7.50268e-07)
(1.0134e-06 0 0 1.0134e-06 0 1.0134e-06)
(8.32262e-07 0 0 8.32262e-07 0 8.32262e-07)
(1.05165e-06 0 0 1.05165e-06 0 1.05165e-06)
(9.36238e-07 0 0 9.36238e-07 0 9.36238e-07)
(7.8592e-07 0 0 7.8592e-07 0 7.8592e-07)
(9.19939e-07 0 0 9.19939e-07 0 9.19939e-07)
(5.63965e-07 0 0 5.63965e-07 0 5.63965e-07)
(7.53821e-07 0 0 7.53821e-07 0 7.53821e-07)
(5.56571e-07 0 0 5.56571e-07 0 5.56571e-07)
(6.54481e-07 0 0 6.54481e-07 0 6.54481e-07)
(8.66608e-07 0 0 8.66608e-07 0 8.66608e-07)
(8.46994e-07 0 0 8.46994e-07 0 8.46994e-07)
(1.89286e-06 0 0 1.89286e-06 0 1.89286e-06)
(1.61432e-06 0 0 1.61432e-06 0 1.61432e-06)
(3.55041e-06 0 0 3.55041e-06 0 3.55041e-06)
(2.9269e-06 0 0 2.9269e-06 0 2.9269e-06)
(3.41203e-06 0 0 3.41203e-06 0 3.41203e-06)
(3.36312e-06 0 0 3.36312e-06 0 3.36312e-06)
(1.89363e-06 0 0 1.89363e-06 0 1.89363e-06)
(2.38997e-06 0 0 2.38997e-06 0 2.38997e-06)
(1.02663e-06 0 0 1.02663e-06 0 1.02663e-06)
(1.35733e-06 0 0 1.35733e-06 0 1.35733e-06)
(7.28715e-07 0 0 7.28715e-07 0 7.28715e-07)
(8.23011e-07 0 0 8.23011e-07 0 8.23011e-07)
(6.58673e-07 0 0 6.58673e-07 0 6.58673e-07)
(5.59884e-07 0 0 5.59884e-07 0 5.59884e-07)
(6.16416e-07 0 0 6.16416e-07 0 6.16416e-07)
(3.16877e-07 0 0 3.16877e-07 0 3.16877e-07)
(5.18452e-07 0 0 5.18452e-07 0 5.18452e-07)
(1.29813e-07 0 0 1.29813e-07 0 1.29813e-07)
(4.46866e-07 0 0 4.46866e-07 0 4.46866e-07)
(5.92732e-08 0 0 5.92732e-08 0 5.92732e-08)
(4.84137e-07 0 0 4.84137e-07 0 4.84137e-07)
(5.31301e-08 0 0 5.31301e-08 0 5.31301e-08)
(6.88042e-07 0 0 6.88042e-07 0 6.88042e-07)
(1.11544e-07 0 0 1.11544e-07 0 1.11544e-07)
(1.06093e-06 0 0 1.06093e-06 0 1.06093e-06)
(3.72436e-07 0 0 3.72436e-07 0 3.72436e-07)
(1.25863e-06 0 0 1.25863e-06 0 1.25863e-06)
(9.86904e-07 0 0 9.86904e-07 0 9.86904e-07)
(1.01071e-06 0 0 1.01071e-06 0 1.01071e-06)
(1.3282e-06 0 0 1.3282e-06 0 1.3282e-06)
(7.00777e-07 0 0 7.00777e-07 0 7.00777e-07)
(1.00157e-06 0 0 1.00157e-06 0 1.00157e-06)
(5.58824e-07 0 0 5.58824e-07 0 5.58824e-07)
(6.15601e-07 0 0 6.15601e-07 0 6.15601e-07)
(5.58963e-07 0 0 5.58963e-07 0 5.58963e-07)
(4.24961e-07 0 0 4.24961e-07 0 4.24961e-07)
(6.24004e-07 0 0 6.24004e-07 0 6.24004e-07)
(3.96569e-07 0 0 3.96569e-07 0 3.96569e-07)
(6.10625e-07 0 0 6.10625e-07 0 6.10625e-07)
(4.79888e-07 0 0 4.79888e-07 0 4.79888e-07)
(4.47169e-07 0 0 4.47169e-07 0 4.47169e-07)
(5.41096e-07 0 0 5.41096e-07 0 5.41096e-07)
(2.66809e-07 0 0 2.66809e-07 0 2.66809e-07)
(4.26594e-07 0 0 4.26594e-07 0 4.26594e-07)
(1.64173e-07 0 0 1.64173e-07 0 1.64173e-07)
(2.54286e-07 0 0 2.54286e-07 0 2.54286e-07)
(1.27458e-07 0 0 1.27458e-07 0 1.27458e-07)
(1.55589e-07 0 0 1.55589e-07 0 1.55589e-07)
(1.35006e-07 0 0 1.35006e-07 0 1.35006e-07)
(1.32906e-07 0 0 1.32906e-07 0 1.32906e-07)
(1.84394e-07 0 0 1.84394e-07 0 1.84394e-07)
(1.77086e-07 0 0 1.77086e-07 0 1.77086e-07)
(2.62969e-07 0 0 2.62969e-07 0 2.62969e-07)
(2.93928e-07 0 0 2.93928e-07 0 2.93928e-07)
(2.84407e-07 0 0 2.84407e-07 0 2.84407e-07)
(4.08941e-07 0 0 4.08941e-07 0 4.08941e-07)
(1.92516e-07 0 0 1.92516e-07 0 1.92516e-07)
(3.58552e-07 0 0 3.58552e-07 0 3.58552e-07)
(9.6259e-08 0 0 9.6259e-08 0 9.6259e-08)
(1.97764e-07 0 0 1.97764e-07 0 1.97764e-07)
(5.26244e-08 0 0 5.26244e-08 0 5.26244e-08)
(9.16316e-08 0 0 9.16316e-08 0 9.16316e-08)
(4.26294e-08 0 0 4.26294e-08 0 4.26294e-08)
(5.31884e-08 0 0 5.31884e-08 0 5.31884e-08)
(5.71066e-08 0 0 5.71066e-08 0 5.71066e-08)
(5.16852e-08 0 0 5.16852e-08 0 5.16852e-08)
(1.24124e-07 0 0 1.24124e-07 0 1.24124e-07)
(9.00483e-08 0 0 9.00483e-08 0 9.00483e-08)
(3.65032e-07 0 0 3.65032e-07 0 3.65032e-07)
(2.48238e-07 0 0 2.48238e-07 0 2.48238e-07)
(1.05259e-06 0 0 1.05259e-06 0 1.05259e-06)
(8.14483e-07 0 0 8.14483e-07 0 8.14483e-07)
(2.19048e-06 0 0 2.19048e-06 0 2.19048e-06)
(2.14178e-06 0 0 2.14178e-06 0 2.14178e-06)
(2.84746e-06 0 0 2.84746e-06 0 2.84746e-06)
(3.36593e-06 0 0 3.36593e-06 0 3.36593e-06)
(2.45409e-06 0 0 2.45409e-06 0 2.45409e-06)
(2.99224e-06 0 0 2.99224e-06 0 2.99224e-06)