/*--------------------------------*- C++ -*----------------------------------*\
  =========                 |
  \\      /  F ield         | OpenFOAM: The Open Source CFD Toolbox
   \\    /   O peration     | Website:  https://openfoam.org
    \\  /    A nd           | Version:  8
     \\/     M anipulation  |
\*---------------------------------------------------------------------------*/
FoamFile
{
    version     2.0;
    format      ascii;
    class       volScalarField;
    location    "700";
    object      p;
}
// * * * * * * * * * * * * * * * * * * * * * * * * * * * * * * * * * * * * * //

dimensions      [1 -1 -2 0 0 0 0];

internalField   nonuniform List<scalar> 
20000
(
-495818
-495819
-495820
-495821
-495823
-495825
-495826
-495826
-495820
-495810
-495803
-495800
-495802
-495810
-495811
-495798
-495787
-495789
-495793
-495794
-495791
-495781
-495765
-495742
-495721
-495706
-495698
-495693
-495690
-495687
-495684
-495678
-495669
-495652
-495624
-495586
-495543
-495505
-495476
-495457
-495442
-495430
-495417
-495397
-495371
-495343
-495321
-495306
-495296
-495289
-495281
-495269
-495251
-495231
-495217
-495210
-495208
-495204
-495196
-495166
-495083
-494967
-494894
-494873
-494869
-494868
-494867
-494866
-494863
-494860
-494854
-494843
-494821
-494775
-494695
-494591
-494486
-494408
-494368
-494354
-494350
-494348
-494351
-494348
-494348
-494346
-494343
-494335
-494321
-494303
-494286
-494271
-494255
-494231
-494195
-494151
-494115
-494097
-494090
-494086
-494081
-494071
-494049
-494014
-493971
-493930
-493898
-493877
-493862
-493848
-493832
-493816
-493803
-493795
-493788
-493781
-493777
-493773
-493769
-493763
-493753
-493740
-493726
-493715
-493706
-493699
-493688
-493668
-493634
-493589
-493547
-493521
-493507
-493500
-493495
-493489
-493484
-493479
-493475
-493468
-493454
-493431
-493406
-493389
-493379
-493374
-493371
-493368
-493364
-493355
-493341
-493324
-493311
-493302
-493297
-493294
-493293
-493292
-493292
-493292
-493292
-493291
-493289
-493288
-493286
-493284
-493280
-493276
-493271
-493267
-493264
-493262
-493258
-493253
-493248
-493244
-493243
-493242
-493241
-493240
-493239
-493239
-493239
-493239
-493238
-493236
-493237
-493237
-493236
-493236
-493235
-493233
-493229
-493226
-493224
-493223
-493222
-493222
-493221
-493221
-500758
-500759
-500760
-500762
-500764
-500767
-500770
-500771
-500767
-500756
-500745
-500739
-500739
-500753
-500758
-500745
-500737
-500737
-500737
-500736
-500733
-500724
-500707
-500686
-500665
-500650
-500640
-500635
-500631
-500628
-500624
-500617
-500606
-500588
-500562
-500527
-500486
-500446
-500415
-500395
-500381
-500372
-500363
-500350
-500330
-500305
-500278
-500256
-500241
-500230
-500219
-500206
-500189
-500172
-500159
-500151
-500146
-500141
-500132
-500102
-500025
-499918
-499845
-499819
-499813
-499810
-499808
-499805
-499801
-499798
-499794
-499787
-499772
-499738
-499667
-499556
-499437
-499351
-499311
-499298
-499294
-499295
-499289
-499294
-499290
-499286
-499281
-499272
-499258
-499241
-499224
-499206
-499186
-499162
-499131
-499095
-499063
-499044
-499034
-499029
-499023
-499013
-498994
-498964
-498926
-498887
-498851
-498822
-498800
-498780
-498762
-498747
-498740
-498737
-498733
-498726
-498720
-498715
-498710
-498704
-498693
-498680
-498666
-498656
-498649
-498642
-498632
-498613
-498576
-498527
-498484
-498458
-498448
-498443
-498440
-498435
-498430
-498424
-498417
-498409
-498394
-498372
-498349
-498331
-498322
-498317
-498314
-498310
-498305
-498296
-498284
-498271
-498258
-498249
-498242
-498239
-498237
-498236
-498236
-498235
-498234
-498233
-498231
-498230
-498228
-498226
-498223
-498219
-498214
-498211
-498208
-498205
-498201
-498195
-498190
-498187
-498186
-498185
-498184
-498183
-498182
-498182
-498182
-498181
-498180
-498182
-498180
-498179
-498179
-498178
-498177
-498174
-498171
-498169
-498167
-498166
-498165
-498164
-498164
-498164
-505734
-505734
-505736
-505738
-505741
-505745
-505749
-505753
-505752
-505742
-505727
-505714
-505710
-505726
-505730
-505726
-505725
-505723
-505718
-505715
-505712
-505703
-505689
-505670
-505651
-505635
-505623
-505615
-505609
-505604
-505598
-505589
-505577
-505560
-505535
-505501
-505459
-505417
-505384
-505364
-505354
-505348
-505344
-505338
-505328
-505310
-505284
-505256
-505232
-505212
-505197
-505183
-505169
-505154
-505140
-505127
-505117
-505108
-505096
-505068
-505007
-504920
-504848
-504814
-504801
-504794
-504788
-504782
-504776
-504772
-504767
-504762
-504750
-504723
-504664
-504563
-504445
-504351
-504302
-504283
-504277
-504275
-504264
-504270
-504267
-504261
-504253
-504242
-504230
-504216
-504201
-504183
-504160
-504134
-504103
-504071
-504044
-504027
-504018
-504011
-504003
-503993
-503977
-503955
-503924
-503886
-503842
-503800
-503768
-503745
-503727
-503714
-503713
-503717
-503716
-503710
-503701
-503694
-503688
-503681
-503671
-503657
-503643
-503634
-503629
-503623
-503613
-503595
-503560
-503511
-503466
-503440
-503428
-503424
-503421
-503418
-503412
-503405
-503397
-503388
-503376
-503358
-503334
-503314
-503303
-503297
-503293
-503289
-503283
-503275
-503265
-503254
-503242
-503233
-503226
-503222
-503219
-503217
-503216
-503215
-503214
-503213
-503211
-503210
-503208
-503206
-503203
-503199
-503195
-503192
-503189
-503186
-503181
-503176
-503171
-503168
-503166
-503165
-503164
-503164
-503163
-503162
-503161
-503160
-503160
-503161
-503159
-503159
-503158
-503158
-503156
-503154
-503151
-503149
-503147
-503146
-503145
-503144
-503143
-503143
-510743
-510743
-510744
-510746
-510750
-510755
-510763
-510772
-510775
-510765
-510748
-510731
-510725
-510723
-510721
-510730
-510742
-510741
-510733
-510731
-510727
-510717
-510703
-510689
-510674
-510660
-510646
-510632
-510618
-510606
-510595
-510586
-510577
-510563
-510537
-510498
-510449
-510407
-510379
-510365
-510361
-510363
-510363
-510361
-510355
-510343
-510322
-510292
-510260
-510233
-510216
-510204
-510194
-510179
-510160
-510140
-510122
-510109
-510094
-510067
-510014
-509939
-509875
-509843
-509829
-509820
-509811
-509801
-509793
-509785
-509777
-509769
-509754
-509722
-509661
-509575
-509480
-509399
-509344
-509314
-509300
-509293
-509285
-509286
-509282
-509275
-509264
-509252
-509240
-509229
-509216
-509200
-509178
-509150
-509115
-509083
-509060
-509046
-509037
-509029
-509019
-509008
-508995
-508977
-508952
-508911
-508858
-508809
-508778
-508755
-508732
-508714
-508723
-508738
-508740
-508732
-508720
-508710
-508703
-508696
-508687
-508673
-508660
-508651
-508646
-508640
-508631
-508613
-508581
-508536
-508493
-508465
-508452
-508446
-508441
-508437
-508431
-508423
-508414
-508406
-508396
-508381
-508358
-508337
-508323
-508316
-508311
-508306
-508300
-508293
-508285
-508275
-508262
-508252
-508245
-508240
-508237
-508232
-508231
-508231
-508231
-508231
-508229
-508228
-508226
-508224
-508221
-508218
-508213
-508210
-508206
-508202
-508197
-508192
-508187
-508186
-508185
-508183
-508183
-508182
-508181
-508180
-508178
-508177
-508177
-508177
-508176
-508175
-508175
-508174
-508174
-508172
-508169
-508166
-508164
-508162
-508161
-508160
-508159
-508159
-515788
-515788
-515789
-515790
-515792
-515796
-515802
-515809
-515813
-515810
-515802
-515792
-515787
-515769
-515760
-515773
-515787
-515786
-515778
-515778
-515776
-515765
-515753
-515743
-515733
-515720
-515705
-515684
-515659
-515637
-515624
-515617
-515610
-515597
-515566
-515516
-515466
-515432
-515414
-515404
-515407
-515416
-515419
-515416
-515412
-515402
-515385
-515356
-515322
-515294
-515275
-515263
-515253
-515239
-515218
-515193
-515170
-515152
-515135
-515106
-515048
-514972
-514916
-514893
-514884
-514877
-514868
-514858
-514848
-514837
-514826
-514812
-514789
-514744
-514675
-514598
-514527
-514467
-514420
-514386
-514367
-514355
-514347
-514343
-514337
-514326
-514314
-514301
-514289
-514278
-514266
-514251
-514230
-514200
-514164
-514133
-514113
-514101
-514092
-514082
-514070
-514057
-514041
-514021
-513992
-513948
-513899
-513862
-513841
-513822
-513790
-513769
-513784
-513802
-513800
-513791
-513778
-513765
-513756
-513747
-513737
-513725
-513713
-513704
-513698
-513692
-513681
-513661
-513629
-513589
-513553
-513530
-513519
-513512
-513503
-513497
-513489
-513479
-513470
-513462
-513452
-513437
-513418
-513398
-513383
-513374
-513367
-513361
-513355
-513348
-513341
-513330
-513317
-513306
-513298
-513292
-513287
-513277
-513281
-513285
-513287
-513287
-513286
-513284
-513282
-513280
-513277
-513273
-513268
-513264
-513260
-513255
-513249
-513245
-513242
-513241
-513240
-513239
-513238
-513238
-513237
-513235
-513233
-513232
-513232
-513231
-513231
-513230
-513230
-513229
-513228
-513226
-513223
-513219
-513216
-513214
-513213
-513212
-513213
-513213
-520872
-520871
-520870
-520869
-520867
-520863
-520858
-520854
-520853
-520857
-520864
-520873
-520878
-520865
-520857
-520859
-520862
-520858
-520852
-520852
-520852
-520847
-520842
-520837
-520829
-520815
-520796
-520768
-520738
-520715
-520702
-520696
-520689
-520673
-520637
-520583
-520536
-520509
-520494
-520485
-520494
-520508
-520511
-520506
-520500
-520493
-520481
-520459
-520428
-520397
-520374
-520358
-520346
-520332
-520311
-520284
-520258
-520237
-520215
-520177
-520111
-520038
-519993
-519974
-519967
-519961
-519954
-519946
-519936
-519924
-519908
-519883
-519842
-519779
-519708
-519648
-519603
-519565
-519529
-519499
-519477
-519463
-519451
-519442
-519430
-519417
-519402
-519387
-519374
-519362
-519350
-519335
-519314
-519284
-519250
-519222
-519204
-519193
-519184
-519173
-519158
-519139
-519118
-519092
-519059
-519021
-518984
-518959
-518947
-518938
-518911
-518897
-518906
-518913
-518903
-518890
-518873
-518858
-518845
-518834
-518823
-518810
-518797
-518789
-518783
-518776
-518763
-518743
-518712
-518676
-518645
-518628
-518621
-518616
-518603
-518598
-518589
-518577
-518564
-518553
-518542
-518528
-518514
-518499
-518484
-518471
-518461
-518453
-518445
-518438
-518430
-518418
-518406
-518397
-518391
-518383
-518376
-518356
-518370
-518379
-518381
-518382
-518382
-518380
-518377
-518373
-518370
-518365
-518361
-518357
-518352
-518347
-518342
-518337
-518335
-518333
-518332
-518332
-518331
-518331
-518330
-518328
-518326
-518325
-518324
-518324
-518323
-518322
-518321
-518320
-518319
-518316
-518312
-518308
-518306
-518305
-518304
-518303
-518303
-518305
-525994
-525989
-525984
-525981
-525978
-525972
-525961
-525949
-525944
-525948
-525962
-525984
-525999
-525995
-525988
-525980
-525970
-525962
-525959
-525956
-525956
-525962
-525966
-525965
-525957
-525942
-525919
-525888
-525859
-525839
-525828
-525820
-525812
-525795
-525760
-525708
-525660
-525633
-525621
-525615
-525626
-525633
-525630
-525623
-525616
-525612
-525609
-525598
-525575
-525544
-525515
-525492
-525473
-525454
-525428
-525400
-525374
-525350
-525321
-525274
-525211
-525151
-525114
-525095
-525084
-525078
-525074
-525066
-525053
-525030
-524994
-524946
-524888
-524826
-524773
-524738
-524715
-524695
-524672
-524647
-524626
-524610
-524596
-524582
-524566
-524549
-524532
-524514
-524498
-524482
-524468
-524452
-524433
-524408
-524378
-524351
-524335
-524326
-524318
-524306
-524288
-524264
-524237
-524209
-524181
-524148
-524115
-524091
-524078
-524073
-524066
-524069
-524075
-524074
-524057
-524038
-524015
-523993
-523976
-523960
-523944
-523928
-523914
-523905
-523900
-523896
-523887
-523870
-523841
-523804
-523772
-523756
-523751
-523750
-523739
-523736
-523728
-523713
-523695
-523679
-523666
-523657
-523647
-523636
-523621
-523603
-523587
-523575
-523568
-523561
-523554
-523544
-523535
-523529
-523524
-523516
-523515
-523495
-523509
-523516
-523518
-523518
-523516
-523513
-523509
-523505
-523501
-523496
-523492
-523488
-523484
-523480
-523474
-523469
-523466
-523464
-523462
-523462
-523462
-523461
-523460
-523458
-523457
-523455
-523453
-523452
-523451
-523450
-523449
-523448
-523447
-523444
-523441
-523438
-523437
-523435
-523435
-523434
-523434
-523435
-531150
-531142
-531136
-531132
-531130
-531127
-531122
-531112
-531106
-531110
-531122
-531141
-531156
-531156
-531148
-531131
-531111
-531102
-531104
-531106
-531105
-531113
-531119
-531117
-531108
-531092
-531069
-531043
-531023
-531008
-530997
-530987
-530976
-530957
-530922
-530869
-530821
-530796
-530787
-530784
-530783
-530779
-530773
-530769
-530763
-530758
-530761
-530761
-530749
-530724
-530692
-530659
-530627
-530598
-530568
-530541
-530515
-530487
-530451
-530404
-530356
-530316
-530287
-530265
-530248
-530237
-530228
-530212
-530184
-530139
-530082
-530028
-529981
-529942
-529910
-529887
-529871
-529856
-529840
-529821
-529804
-529790
-529776
-529762
-529746
-529727
-529706
-529683
-529661
-529641
-529624
-529609
-529593
-529572
-529545
-529520
-529504
-529495
-529487
-529477
-529461
-529436
-529406
-529378
-529351
-529321
-529287
-529259
-529243
-529237
-529249
-529257
-529257
-529248
-529237
-529221
-529199
-529176
-529155
-529134
-529110
-529087
-529070
-529059
-529054
-529051
-529046
-529033
-529005
-528968
-528936
-528919
-528913
-528910
-528911
-528907
-528898
-528880
-528858
-528840
-528828
-528820
-528814
-528805
-528787
-528764
-528744
-528733
-528727
-528724
-528719
-528713
-528706
-528701
-528698
-528696
-528705
-528694
-528704
-528709
-528707
-528700
-528692
-528684
-528678
-528674
-528670
-528665
-528660
-528656
-528652
-528648
-528643
-528639
-528635
-528633
-528632
-528631
-528630
-528629
-528627
-528626
-528624
-528622
-528620
-528618
-528617
-528616
-528615
-528614
-528613
-528612
-528609
-528607
-528605
-528603
-528603
-528603
-528603
-528604
-536333
-536331
-536329
-536326
-536324
-536321
-536318
-536311
-536306
-536309
-536319
-536332
-536344
-536347
-536332
-536304
-536282
-536280
-536288
-536297
-536302
-536306
-536303
-536297
-536291
-536277
-536255
-536237
-536229
-536223
-536213
-536200
-536183
-536156
-536112
-536058
-536017
-535996
-535988
-535985
-535969
-535956
-535955
-535953
-535945
-535938
-535937
-535939
-535933
-535915
-535887
-535849
-535810
-535776
-535749
-535725
-535701
-535671
-535632
-535588
-535550
-535522
-535500
-535478
-535456
-535434
-535409
-535375
-535330
-535277
-535226
-535189
-535161
-535137
-535112
-535089
-535069
-535052
-535036
-535020
-535005
-534992
-534980
-534970
-534959
-534945
-534926
-534901
-534873
-534845
-534824
-534808
-534793
-534774
-534749
-534725
-534707
-534697
-534689
-534680
-534668
-534650
-534622
-534591
-534560
-534527
-534493
-534464
-534448
-534443
-534457
-534448
-534441
-534438
-534434
-534422
-534406
-534390
-534373
-534353
-534326
-534296
-534270
-534255
-534245
-534238
-534235
-534224
-534202
-534170
-534140
-534123
-534113
-534106
-534112
-534108
-534094
-534073
-534053
-534039
-534027
-534020
-534018
-534009
-533990
-533965
-533945
-533936
-533931
-533928
-533926
-533923
-533918
-533914
-533916
-533926
-533938
-533933
-533942
-533942
-533935
-533923
-533910
-533899
-533892
-533886
-533880
-533873
-533866
-533861
-533856
-533852
-533848
-533844
-533842
-533840
-533838
-533836
-533835
-533833
-533832
-533830
-533828
-533826
-533824
-533822
-533821
-533820
-533819
-533818
-533817
-533816
-533815
-533813
-533811
-533809
-533808
-533809
-533809
-533809
-541552
-541555
-541558
-541559
-541557
-541552
-541546
-541539
-541533
-541534
-541540
-541550
-541563
-541569
-541551
-541520
-541500
-541502
-541511
-541519
-541528
-541534
-541530
-541521
-541524
-541512
-541488
-541473
-541472
-541471
-541465
-541453
-541433
-541399
-541346
-541289
-541251
-541233
-541225
-541222
-541205
-541190
-541189
-541182
-541168
-541155
-541143
-541135
-541129
-541118
-541095
-541062
-541027
-540999
-540979
-540961
-540941
-540914
-540879
-540835
-540794
-540763
-540739
-540717
-540692
-540662
-540625
-540583
-540539
-540492
-540450
-540419
-540396
-540376
-540354
-540331
-540309
-540289
-540272
-540255
-540239
-540223
-540210
-540201
-540194
-540187
-540175
-540157
-540130
-540098
-540069
-540048
-540030
-540011
-539988
-539963
-539944
-539932
-539924
-539917
-539909
-539898
-539876
-539842
-539802
-539761
-539726
-539702
-539691
-539686
-539692
-539672
-539657
-539664
-539662
-539654
-539645
-539634
-539620
-539602
-539576
-539542
-539510
-539486
-539472
-539463
-539460
-539453
-539437
-539412
-539385
-539366
-539354
-539346
-539346
-539338
-539323
-539305
-539290
-539279
-539269
-539263
-539261
-539255
-539238
-539211
-539189
-539178
-539173
-539170
-539167
-539167
-539168
-539168
-539169
-539190
-539201
-539201
-539201
-539193
-539183
-539171
-539160
-539153
-539147
-539141
-539133
-539122
-539112
-539104
-539098
-539093
-539089
-539086
-539084
-539082
-539080
-539078
-539076
-539074
-539073
-539072
-539070
-539067
-539065
-539063
-539062
-539061
-539060
-539059
-539059
-539058
-539056
-539054
-539053
-539051
-539050
-539049
-539051
-539051
-546813
-546818
-546824
-546829
-546830
-546823
-546811
-546798
-546789
-546787
-546791
-546799
-546809
-546816
-546809
-546792
-546779
-546778
-546779
-546777
-546781
-546788
-546793
-546795
-546800
-546789
-546765
-546750
-546746
-546744
-546739
-546732
-546715
-546682
-546629
-546571
-546530
-546511
-546503
-546500
-546488
-546477
-546470
-546456
-546438
-546417
-546391
-546370
-546360
-546349
-546330
-546302
-546275
-546259
-546248
-546236
-546219
-546196
-546165
-546124
-546078
-546038
-546009
-545985
-545959
-545927
-545891
-545854
-545817
-545778
-545737
-545700
-545671
-545648
-545625
-545603
-545582
-545563
-545548
-545534
-545518
-545499
-545482
-545469
-545460
-545454
-545447
-545436
-545416
-545386
-545351
-545321
-545296
-545273
-545250
-545229
-545211
-545201
-545194
-545189
-545184
-545174
-545153
-545116
-545068
-545024
-544993
-544978
-544971
-544967
-544966
-544951
-544932
-544933
-544931
-544927
-544922
-544913
-544898
-544874
-544842
-544807
-544777
-544755
-544740
-544731
-544725
-544720
-544709
-544689
-544665
-544644
-544631
-544623
-544618
-544609
-544596
-544582
-544569
-544560
-544552
-544547
-544545
-544539
-544524
-544498
-544471
-544457
-544452
-544449
-544447
-544448
-544452
-544455
-544454
-544475
-544480
-544483
-544471
-544464
-544454
-544445
-544440
-544437
-544433
-544427
-544419
-544407
-544396
-544386
-544379
-544373
-544368
-544365
-544363
-544360
-544358
-544355
-544354
-544352
-544351
-544349
-544347
-544345
-544342
-544340
-544339
-544339
-544339
-544338
-544337
-544336
-544334
-544332
-544331
-544330
-544330
-544329
-544331
-544331
-552114
-552120
-552128
-552138
-552143
-552134
-552112
-552091
-552078
-552075
-552077
-552083
-552086
-552087
-552091
-552095
-552097
-552096
-552088
-552076
-552070
-552071
-552077
-552086
-552091
-552086
-552072
-552061
-552053
-552045
-552041
-552036
-552023
-551995
-551953
-551903
-551860
-551835
-551825
-551820
-551809
-551799
-551789
-551771
-551748
-551719
-551686
-551658
-551642
-551627
-551605
-551580
-551561
-551552
-551544
-551532
-551517
-551497
-551468
-551429
-551384
-551343
-551314
-551293
-551270
-551241
-551205
-551169
-551134
-551096
-551055
-551019
-550991
-550965
-550938
-550912
-550890
-550874
-550862
-550852
-550839
-550819
-550796
-550777
-550766
-550760
-550755
-550746
-550727
-550695
-550657
-550622
-550592
-550568
-550547
-550529
-550515
-550507
-550502
-550498
-550490
-550477
-550450
-550410
-550367
-550331
-550308
-550296
-550291
-550288
-550283
-550269
-550252
-550247
-550243
-550240
-550235
-550225
-550203
-550169
-550132
-550103
-550083
-550066
-550050
-550038
-550030
-550025
-550017
-550000
-549978
-549957
-549942
-549933
-549927
-549921
-549910
-549898
-549887
-549879
-549874
-549870
-549865
-549857
-549841
-549816
-549788
-549772
-549768
-549767
-549768
-549770
-549773
-549776
-549779
-549779
-549771
-549778
-549772
-549768
-549760
-549755
-549753
-549752
-549749
-549744
-549737
-549726
-549716
-549707
-549699
-549691
-549685
-549681
-549678
-549675
-549673
-549670
-549668
-549666
-549665
-549663
-549661
-549659
-549656
-549654
-549654
-549653
-549653
-549653
-549651
-549650
-549648
-549647
-549647
-549647
-549648
-549649
-549648
-549647
-557456
-557459
-557464
-557474
-557478
-557467
-557444
-557425
-557417
-557415
-557413
-557410
-557401
-557393
-557399
-557420
-557437
-557435
-557421
-557402
-557388
-557380
-557381
-557390
-557390
-557390
-557394
-557397
-557388
-557375
-557372
-557373
-557363
-557339
-557308
-557273
-557235
-557206
-557188
-557177
-557162
-557148
-557134
-557118
-557093
-557062
-557029
-557000
-556979
-556957
-556930
-556905
-556889
-556879
-556870
-556857
-556841
-556822
-556796
-556760
-556719
-556681
-556652
-556631
-556611
-556587
-556555
-556516
-556472
-556424
-556382
-556359
-556347
-556327
-556301
-556272
-556245
-556225
-556213
-556204
-556191
-556168
-556141
-556120
-556108
-556103
-556097
-556085
-556061
-556029
-555995
-555964
-555935
-555909
-555887
-555871
-555860
-555855
-555849
-555842
-555827
-555804
-555777
-555749
-555723
-555695
-555672
-555656
-555648
-555642
-555635
-555620
-555605
-555598
-555593
-555588
-555580
-555565
-555534
-555494
-555463
-555445
-555433
-555420
-555404
-555388
-555376
-555368
-555359
-555344
-555325
-555305
-555289
-555279
-555272
-555266
-555259
-555251
-555242
-555236
-555234
-555229
-555219
-555206
-555187
-555162
-555138
-555125
-555123
-555126
-555129
-555131
-555132
-555132
-555132
-555106
-555089
-555107
-555116
-555115
-555110
-555105
-555103
-555101
-555099
-555095
-555089
-555081
-555073
-555067
-555060
-555051
-555042
-555035
-555030
-555027
-555024
-555021
-555018
-555017
-555016
-555014
-555012
-555010
-555008
-555006
-555006
-555005
-555005
-555004
-555002
-555000
-554998
-554996
-554996
-554998
-555001
-555003
-555001
-554999
-562835
-562828
-562821
-562819
-562816
-562809
-562803
-562805
-562807
-562804
-562794
-562780
-562765
-562753
-562757
-562780
-562795
-562788
-562771
-562753
-562737
-562726
-562726
-562727
-562716
-562718
-562741
-562751
-562737
-562726
-562732
-562741
-562735
-562713
-562685
-562658
-562634
-562613
-562592
-562571
-562549
-562527
-562508
-562491
-562469
-562442
-562414
-562388
-562364
-562336
-562306
-562279
-562258
-562241
-562228
-562216
-562202
-562185
-562163
-562134
-562098
-562061
-562028
-562002
-561981
-561957
-561921
-561870
-561813
-561765
-561737
-561731
-561731
-561715
-561692
-561667
-561641
-561618
-561601
-561585
-561564
-561536
-561508
-561489
-561478
-561473
-561467
-561454
-561434
-561410
-561382
-561352
-561319
-561285
-561261
-561246
-561239
-561234
-561225
-561211
-561190
-561169
-561153
-561140
-561124
-561102
-561076
-561055
-561041
-561032
-561023
-561010
-560996
-560986
-560978
-560970
-560957
-560934
-560900
-560865
-560841
-560828
-560818
-560809
-560797
-560783
-560769
-560756
-560742
-560726
-560709
-560691
-560675
-560662
-560652
-560645
-560642
-560639
-560634
-560629
-560626
-560619
-560604
-560585
-560565
-560544
-560525
-560515
-560516
-560522
-560527
-560527
-560525
-560522
-560515
-560488
-560471
-560487
-560498
-560500
-560496
-560491
-560487
-560485
-560483
-560481
-560476
-560471
-560465
-560461
-560456
-560450
-560441
-560431
-560422
-560416
-560412
-560409
-560406
-560405
-560404
-560402
-560401
-560399
-560398
-560396
-560395
-560395
-560394
-560392
-560390
-560388
-560385
-560381
-560378
-560378
-560380
-560381
-560380
-560379
-568259
-568237
-568209
-568184
-568170
-568172
-568193
-568214
-568221
-568213
-568199
-568186
-568173
-568164
-568163
-568171
-568175
-568168
-568155
-568140
-568124
-568110
-568101
-568084
-568067
-568084
-568122
-568128
-568114
-568109
-568119
-568127
-568123
-568107
-568086
-568067
-568052
-568038
-568019
-567996
-567970
-567943
-567920
-567900
-567878
-567854
-567829
-567809
-567789
-567763
-567731
-567698
-567666
-567638
-567618
-567607
-567596
-567584
-567567
-567545
-567515
-567480
-567445
-567415
-567386
-567349
-567297
-567235
-567180
-567146
-567133
-567136
-567140
-567126
-567104
-567085
-567064
-567041
-567018
-566994
-566965
-566936
-566914
-566898
-566888
-566885
-566879
-566870
-566857
-566839
-566814
-566777
-566731
-566691
-566667
-566656
-566651
-566645
-566634
-566619
-566604
-566591
-566582
-566571
-566555
-566531
-566504
-566481
-566465
-566456
-566449
-566439
-566425
-566411
-566397
-566382
-566360
-566330
-566299
-566275
-566258
-566246
-566236
-566228
-566222
-566213
-566201
-566186
-566169
-566153
-566137
-566119
-566102
-566086
-566072
-566064
-566060
-566059
-566057
-566053
-566049
-566041
-566021
-566001
-565985
-565968
-565953
-565942
-565939
-565948
-565955
-565955
-565952
-565948
-565939
-565922
-565913
-565918
-565921
-565921
-565917
-565913
-565909
-565906
-565905
-565905
-565902
-565897
-565891
-565887
-565883
-565879
-565873
-565865
-565854
-565844
-565838
-565834
-565832
-565830
-565829
-565828
-565827
-565826
-565824
-565823
-565821
-565820
-565819
-565817
-565815
-565812
-565808
-565802
-565797
-565794
-565792
-565791
-565790
-565789
-573730
-573697
-573650
-573610
-573590
-573597
-573629
-573650
-573652
-573641
-573630
-573620
-573611
-573606
-573606
-573606
-573602
-573592
-573577
-573557
-573540
-573534
-573525
-573495
-573480
-573514
-573550
-573552
-573539
-573531
-573527
-573522
-573518
-573516
-573509
-573499
-573489
-573475
-573458
-573437
-573414
-573390
-573369
-573350
-573328
-573302
-573279
-573261
-573245
-573226
-573197
-573159
-573120
-573085
-573059
-573043
-573030
-573017
-573002
-572984
-572960
-572929
-572895
-572864
-572828
-572780
-572720
-572658
-572610
-572581
-572568
-572567
-572564
-572556
-572542
-572526
-572509
-572490
-572469
-572443
-572415
-572391
-572373
-572358
-572347
-572343
-572338
-572329
-572318
-572302
-572275
-572230
-572177
-572139
-572121
-572112
-572108
-572102
-572093
-572083
-572072
-572062
-572051
-572034
-572010
-571981
-571953
-571932
-571919
-571911
-571908
-571900
-571888
-571871
-571849
-571823
-571793
-571762
-571740
-571725
-571713
-571702
-571692
-571684
-571677
-571669
-571659
-571649
-571636
-571625
-571613
-571598
-571579
-571557
-571537
-571524
-571517
-571514
-571511
-571508
-571505
-571501
-571483
-571466
-571455
-571441
-571427
-571411
-571397
-571399
-571412
-571418
-571417
-571412
-571403
-571393
-571389
-571388
-571386
-571383
-571379
-571374
-571371
-571370
-571369
-571368
-571365
-571359
-571353
-571347
-571344
-571340
-571336
-571330
-571321
-571310
-571302
-571297
-571294
-571292
-571291
-571290
-571289
-571288
-571286
-571284
-571282
-571281
-571280
-571279
-571276
-571271
-571264
-571258
-571253
-571250
-571247
-571245
-571243
-571242
-579205
-579183
-579146
-579110
-579091
-579096
-579112
-579120
-579116
-579106
-579097
-579088
-579081
-579083
-579089
-579087
-579074
-579054
-579040
-579020
-578996
-578995
-578995
-578975
-578966
-578992
-579015
-579015
-579003
-578985
-578962
-578944
-578940
-578950
-578958
-578957
-578950
-578939
-578926
-578909
-578889
-578867
-578850
-578836
-578819
-578795
-578770
-578749
-578733
-578713
-578684
-578648
-578615
-578585
-578558
-578534
-578513
-578493
-578474
-578455
-578431
-578402
-578377
-578356
-578327
-578280
-578219
-578154
-578100
-578063
-578040
-578019
-578005
-578003
-578006
-577996
-577980
-577966
-577952
-577934
-577911
-577889
-577872
-577857
-577847
-577840
-577834
-577825
-577812
-577792
-577758
-577710
-577664
-577634
-577620
-577613
-577610
-577604
-577595
-577586
-577576
-577566
-577550
-577526
-577494
-577460
-577432
-577413
-577402
-577397
-577400
-577393
-577380
-577363
-577341
-577314
-577283
-577254
-577232
-577218
-577207
-577195
-577183
-577174
-577167
-577159
-577152
-577146
-577140
-577137
-577132
-577120
-577104
-577079
-577049
-577026
-577014
-577007
-577003
-577000
-576997
-576995
-576988
-576976
-576966
-576954
-576941
-576926
-576907
-576899
-576912
-576923
-576922
-576916
-576908
-576901
-576896
-576893
-576889
-576884
-576879
-576875
-576873
-576871
-576869
-576866
-576862
-576856
-576850
-576845
-576841
-576838
-576834
-576828
-576818
-576808
-576800
-576796
-576793
-576791
-576789
-576787
-576786
-576784
-576781
-576779
-576778
-576778
-576777
-576774
-576768
-576759
-576752
-576747
-576744
-576742
-576741
-576741
-576740
-576740
-584649
-584651
-584649
-584644
-584640
-584640
-584638
-584630
-584617
-584606
-584602
-584600
-584591
-584590
-584592
-584587
-584567
-584545
-584537
-584525
-584500
-584491
-584491
-584487
-584485
-584495
-584506
-584506
-584494
-584473
-584443
-584420
-584417
-584431
-584447
-584452
-584450
-584446
-584438
-584423
-584401
-584380
-584364
-584355
-584344
-584327
-584305
-584281
-584255
-584226
-584195
-584169
-584147
-584124
-584098
-584072
-584046
-584020
-583992
-583962
-583931
-583904
-583890
-583884
-583868
-583835
-583782
-583709
-583637
-583584
-583546
-583510
-583488
-583493
-583508
-583504
-583487
-583471
-583460
-583449
-583433
-583415
-583400
-583389
-583382
-583374
-583364
-583350
-583326
-583294
-583256
-583218
-583188
-583169
-583158
-583150
-583147
-583143
-583134
-583123
-583112
-583097
-583076
-583047
-583010
-582975
-582947
-582929
-582921
-582919
-582925
-582919
-582906
-582893
-582875
-582855
-582831
-582804
-582777
-582756
-582738
-582721
-582706
-582695
-582689
-582685
-582681
-582678
-582677
-582678
-582674
-582665
-582655
-582637
-582607
-582576
-582555
-582543
-582535
-582529
-582523
-582519
-582522
-582520
-582510
-582498
-582487
-582479
-582468
-582461
-582466
-582470
-582465
-582457
-582449
-582444
-582439
-582434
-582429
-582422
-582416
-582411
-582409
-582407
-582405
-582401
-582396
-582390
-582383
-582378
-582375
-582372
-582368
-582361
-582350
-582339
-582333
-582329
-582328
-582326
-582323
-582320
-582315
-582311
-582308
-582305
-582304
-582302
-582299
-582294
-582288
-582282
-582278
-582275
-582273
-582272
-582272
-582274
-582275
-582275
-590081
-590094
-590120
-590159
-590193
-590199
-590188
-590170
-590151
-590140
-590141
-590147
-590138
-590123
-590110
-590095
-590079
-590068
-590063
-590058
-590051
-590047
-590045
-590043
-590039
-590037
-590037
-590035
-590024
-590003
-589976
-589956
-589954
-589966
-589982
-589990
-589992
-589991
-589984
-589970
-589950
-589931
-589917
-589908
-589900
-589890
-589872
-589844
-589810
-589777
-589753
-589736
-589717
-589695
-589670
-589643
-589614
-589582
-589546
-589508
-589474
-589451
-589438
-589431