/*--------------------------------*- C++ -*----------------------------------*\
  =========                 |
  \\      /  F ield         | OpenFOAM: The Open Source CFD Toolbox
   \\    /   O peration     | Website:  https://openfoam.org
    \\  /    A nd           | Version:  8
     \\/     M anipulation  |
\*---------------------------------------------------------------------------*/
FoamFile
{
    version     2.0;
    format      ascii;
    class       volScalarField;
    location    "700";
    object      p_rgh;
}
// * * * * * * * * * * * * * * * * * * * * * * * * * * * * * * * * * * * * * //

dimensions      [1 -1 -2 0 0 0 0];

internalField   nonuniform List<scalar> 
20000
(
-493357
-493358
-493359
-493360
-493361
-493363
-493364
-493364
-493358
-493348
-493341
-493339
-493340
-493349
-493351
-493337
-493320
-493323
-493332
-493333
-493329
-493320
-493303
-493280
-493259
-493244
-493236
-493231
-493229
-493226
-493222
-493217
-493207
-493190
-493163
-493124
-493081
-493043
-493014
-492995
-492981
-492969
-492955
-492935
-492909
-492881
-492858
-492843
-492834
-492827
-492819
-492807
-492789
-492770
-492755
-492748
-492747
-492744
-492735
-492705
-492621
-492505
-492432
-492411
-492407
-492406
-492406
-492405
-492402
-492398
-492392
-492381
-492359
-492313
-492233
-492129
-492024
-491946
-491906
-491892
-491888
-491879
-491890
-491879
-491886
-491886
-491882
-491874
-491859
-491841
-491824
-491810
-491793
-491769
-491733
-491689
-491653
-491635
-491627
-491624
-491619
-491609
-491587
-491552
-491509
-491468
-491436
-491415
-491400
-491386
-491370
-491354
-491342
-491333
-491326
-491319
-491315
-491311
-491307
-491301
-491292
-491278
-491264
-491253
-491244
-491237
-491226
-491206
-491172
-491127
-491085
-491059
-491045
-491038
-491033
-491027
-491022
-491017
-491013
-491006
-490992
-490969
-490944
-490927
-490917
-490912
-490909
-490906
-490902
-490893
-490879
-490862
-490849
-490840
-490835
-490831
-490830
-490829
-490830
-490830
-490830
-490829
-490828
-490826
-490824
-490822
-490818
-490814
-490809
-490805
-490803
-490800
-490796
-490791
-490786
-490783
-490781
-490781
-490780
-490778
-490777
-490777
-490777
-490777
-490777
-490772
-490775
-490775
-490775
-490774
-490773
-490771
-490767
-490764
-490762
-490761
-490760
-490760
-490759
-490759
-493319
-493322
-493324
-493326
-493326
-493326
-493328
-493329
-493325
-493314
-493304
-493298
-493295
-493321
-493337
-493305
-493260
-493276
-493304
-493305
-493295
-493283
-493266
-493243
-493222
-493207
-493198
-493193
-493191
-493188
-493185
-493179
-493167
-493149
-493121
-493086
-493044
-493005
-492974
-492954
-492941
-492932
-492921
-492906
-492885
-492859
-492833
-492812
-492798
-492788
-492778
-492765
-492747
-492728
-492715
-492709
-492715
-492713
-492695
-492661
-492583
-492476
-492401
-492376
-492369
-492368
-492368
-492368
-492365
-492364
-492359
-492347
-492329
-492295
-492224
-492114
-491994
-491909
-491868
-491855
-491854
-491840
-491885
-491842
-491855
-491850
-491845
-491834
-491819
-491800
-491782
-491766
-491746
-491721
-491689
-491653
-491620
-491600
-491589
-491586
-491582
-491571
-491551
-491520
-491482
-491443
-491408
-491380
-491358
-491340
-491323
-491307
-491298
-491295
-491290
-491284
-491278
-491274
-491269
-491262
-491252
-491238
-491224
-491214
-491207
-491200
-491190
-491170
-491134
-491085
-491041
-491016
-491005
-491001
-490998
-490994
-490988
-490982
-490975
-490966
-490952
-490930
-490906
-490889
-490879
-490874
-490870
-490867
-490862
-490853
-490842
-490828
-490816
-490807
-490799
-490793
-490790
-490791
-490791
-490792
-490791
-490790
-490789
-490788
-490786
-490784
-490781
-490777
-490772
-490768
-490765
-490762
-490758
-490753
-490748
-490745
-490744
-490744
-490742
-490740
-490739
-490739
-490741
-490742
-490742
-490731
-490739
-490737
-490737
-490736
-490734
-490732
-490729
-490726
-490725
-490724
-490723
-490722
-490722
-490721
-493245
-493251
-493255
-493259
-493256
-493258
-493259
-493260
-493257
-493247
-493233
-493223
-493180
-493264
-493317
-493237
-493178
-493206
-493242
-493245
-493227
-493210
-493192
-493172
-493152
-493136
-493125
-493118
-493113
-493109
-493105
-493098
-493085
-493066
-493040
-493006
-492963
-492921
-492888
-492869
-492859
-492855
-492849
-492841
-492829
-492810
-492784
-492757
-492733
-492714
-492699
-492684
-492668
-492651
-492637
-492631
-492641
-492641
-492614
-492574
-492510
-492421
-492349
-492315
-492302
-492295
-492289
-492285
-492283
-492287
-492289
-492277
-492258
-492227
-492166
-492065
-491947
-491853
-491803
-491784
-491776
-491762
-491800
-491765
-491775
-491771
-491764
-491753
-491738
-491721
-491704
-491685
-491664
-491638
-491607
-491574
-491547
-491527
-491514
-491511
-491507
-491497
-491480
-491456
-491425
-491388
-491345
-491303
-491271
-491249
-491232
-491215
-491216
-491221
-491219
-491212
-491204
-491199
-491193
-491185
-491174
-491160
-491146
-491138
-491133
-491126
-491116
-491097
-491062
-491013
-490968
-490942
-490931
-490928
-490926
-490921
-490915
-490908
-490899
-490890
-490878
-490860
-490836
-490816
-490805
-490798
-490794
-490789
-490783
-490776
-490767
-490756
-490744
-490734
-490724
-490715
-490712
-490713
-490714
-490714
-490714
-490713
-490712
-490711
-490710
-490708
-490705
-490702
-490698
-490694
-490691
-490688
-490684
-490678
-490673
-490670
-490669
-490671
-490668
-490664
-490662
-490664
-490668
-490667
-490661
-490658
-490661
-490661
-490660
-490660
-490658
-490656
-490653
-490651
-490649
-490648
-490647
-490646
-490645
-490645
-493146
-493154
-493158
-493150
-493154
-493162
-493175
-493171
-493160
-493152
-493146
-493104
-493023
-493202
-493255
-493171
-493090
-493109
-493148
-493154
-493127
-493098
-493078
-493061
-493045
-493030
-493017
-493005
-492992
-492981
-492972
-492966
-492956
-492939
-492912
-492872
-492824
-492783
-492755
-492739
-492734
-492737
-492740
-492741
-492734
-492718
-492694
-492663
-492630
-492603
-492584
-492572
-492561
-492547
-492529
-492515
-492515
-492522
-492497
-492456
-492395
-492316
-492251
-492216
-492202
-492192
-492181
-492172
-492165
-492167
-492174
-492165
-492143
-492104
-492038
-491948
-491852
-491770
-491714
-491683
-491667
-491654
-491662
-491655
-491659
-491653
-491644
-491633
-491621
-491607
-491591
-491573
-491550
-491522
-491488
-491456
-491432
-491415
-491404
-491400
-491395
-491385
-491370
-491351
-491324
-491283
-491230
-491181
-491150
-491129
-491105
-491051
-491090
-491119
-491115
-491104
-491092
-491084
-491082
-491076
-491063
-491047
-491034
-491028
-491024
-491016
-491004
-490985
-490953
-490908
-490864
-490837
-490825
-490821
-490817
-490811
-490804
-490795
-490786
-490777
-490768
-490752
-490730
-490709
-490695
-490687
-490682
-490677
-490670
-490663
-490656
-490646
-490634
-490621
-490610
-490597
-490593
-490593
-490597
-490599
-490600
-490600
-490600
-490599
-490598
-490596
-490593
-490589
-490585
-490582
-490578
-490575
-490569
-490563
-490559
-490557
-490559
-490560
-490556
-490553
-490551
-490552
-490554
-490553
-490548
-490544
-490545
-490546
-490546
-490546
-490545
-490543
-490541
-490538
-490536
-490534
-490532
-490531
-490531
-490531
-492992
-492996
-492995
-492995
-493009
-493036
-493092
-493159
-493186
-493135
-493030
-492920
-492834
-492984
-492988
-492949
-492959
-492974
-493009
-493041
-493008
-492948
-492919
-492904
-492891
-492880
-492868
-492850
-492828
-492807
-492798
-492794
-492787
-492769
-492735
-492686
-492637
-492605
-492586
-492569
-492565
-492582
-492597
-492608
-492606
-492589
-492559
-492524
-492483
-492450
-492435
-492436
-492433
-492416
-492390
-492362
-492350
-492350
-492333
-492299
-492238
-492160
-492103
-492082
-492081
-492070
-492051
-492036
-492029
-492025
-492020
-492007
-491982
-491933
-491858
-491773
-491697
-491634
-491584
-491549
-491527
-491513
-491509
-491508
-491508
-491500
-491489
-491477
-491467
-491455
-491439
-491421
-491398
-491367
-491332
-491300
-491278
-491263
-491254
-491248
-491242
-491232
-491216
-491192
-491160
-491115
-491065
-491029
-491010
-490997
-490948
-490646
-490817
-490988
-490981
-490960
-490944
-490934
-490933
-490935
-490922
-490905
-490891
-490887
-490884
-490869
-490850
-490828
-490796
-490756
-490720
-490697
-490688
-490685
-490674
-490667
-490658
-490648
-490637
-490628
-490617
-490603
-490584
-490565
-490550
-490541
-490534
-490528
-490521
-490514
-490507
-490496
-490483
-490470
-490457
-490439
-490434
-490422
-490438
-490446
-490450
-490452
-490453
-490451
-490449
-490446
-490443
-490440
-490435
-490431
-490427
-490422
-490416
-490410
-490407
-490408
-490412
-490412
-490407
-490405
-490404
-490402
-490401
-490401
-490400
-490396
-490392
-490395
-490396
-490396
-490395
-490393
-490389
-490385
-490382
-490381
-490380
-490378
-490379
-490380
-492794
-492780
-492777
-492784
-492799
-492844
-492955
-493085
-493137
-493114
-493044
-492881
-492658
-492733
-492753
-492754
-492760
-492773
-492821
-492910
-492902
-492779
-492713
-492705
-492701
-492693
-492678
-492655
-492625
-492608
-492595
-492598
-492589
-492567
-492527
-492474
-492429
-492407
-492395
-492334
-492320
-492408
-492449
-492447
-492452
-492438
-492412
-492362
-492312
-492275
-492254
-492248
-492243
-492226
-492203
-492175
-492152
-492135
-492117
-492081
-492017
-491947
-491909
-491915
-491941
-491932
-491900
-491870
-491856
-491844
-491826
-491799
-491759
-491699
-491625
-491555
-491499
-491454
-491414
-491381
-491356
-491340
-491330
-491325
-491320
-491309
-491297
-491285
-491276
-491268
-491252
-491230
-491204
-491172
-491138
-491108
-491088
-491072
-491062
-491055
-491046
-491035
-491017
-490988
-490950
-490909
-490871
-490847
-490844
-490862
-490608
-490315
-490485
-490851
-490819
-490781
-490760
-490746
-490741
-490741
-490736
-490725
-490718
-490719
-490713
-490686
-490657
-490631
-490600
-490564
-490534
-490516
-490516
-490522
-490481
-490486
-490478
-490465
-490452
-490439
-490427
-490413
-490400
-490386
-490371
-490359
-490348
-490340
-490332
-490325
-490316
-490305
-490292
-490283
-490271
-490243
-490243
-490143
-490244
-490264
-490268
-490269
-490269
-490267
-490264
-490261
-490257
-490253
-490248
-490244
-490240
-490234
-490228
-490223
-490221
-490222
-490225
-490225
-490222
-490220
-490218
-490216
-490214
-490213
-490212
-490210
-490204
-490205
-490208
-490207
-490206
-490203
-490199
-490195
-490193
-490192
-490192
-490187
-490189
-490192
-492572
-492542
-492533
-492537
-492549
-492574
-492588
-492600
-492610
-492657
-492747
-492688
-492505
-492497
-492522
-492526
-492526
-492535
-492587
-492714
-492738
-492601
-492506
-492500
-492493
-492477
-492454
-492423
-492392
-492365
-492352
-492360
-492358
-492340
-492302
-492248
-492204
-492186
-492160
-492004
-492107
-492279
-492351
-492298
-492275
-492276
-492258
-492183
-492116
-492078
-492050
-492028
-492010
-491991
-491966
-491938
-491914
-491890
-491861
-491814
-491751
-491693
-491663
-491669
-491699
-491687
-491657
-491640
-491635
-491615
-491570
-491511
-491451
-491395
-491346
-491306
-491271
-491237
-491206
-491176
-491150
-491131
-491119
-491109
-491098
-491083
-491067
-491052
-491043
-491038
-491030
-491007
-490975
-490942
-490910
-490882
-490860
-490842
-490837
-490830
-490816
-490797
-490776
-490747
-490715
-490679
-490647
-490625
-490633
-490738
-490465
-490303
-490363
-490765
-490624
-490574
-490547
-490525
-490509
-490498
-490491
-490486
-490489
-490503
-490526
-490502
-490446
-490408
-490377
-490340
-490309
-490292
-490310
-490339
-490180
-490255
-490260
-490246
-490228
-490211
-490196
-490186
-490179
-490169
-490154
-490137
-490120
-490108
-490101
-490095
-490087
-490078
-490070
-490067
-490059
-489996
-489988
-489520
-490004
-490059
-490054
-490052
-490050
-490046
-490041
-490036
-490032
-490029
-490025
-490022
-490018
-490013
-490008
-490002
-489999
-489998
-489999
-490001
-490001
-489998
-489995
-489993
-489991
-489989
-489988
-489987
-489980
-489978
-489982
-489982
-489980
-489977
-489974
-489972
-489970
-489968
-489970
-489943
-489956
-489970
-492400
-492299
-492283
-492288
-492304
-492300
-492281
-492254
-492241
-492265
-492348
-492408
-492327
-492279
-492270
-492255
-492245
-492254
-492323
-492432
-492418
-492294
-492250
-492238
-492225
-492204
-492177
-492148
-492123
-492099
-492080
-492084
-492090
-492074
-492037
-491983
-491936
-491927
-491938
-491775
-492064
-492204
-492122
-491990
-491973
-492021
-492106
-492042
-491915
-491850
-491807
-491771
-491738
-491708
-491679
-491652
-491627
-491599
-491562
-491515
-491467
-491430
-491409
-491401
-491396
-491382
-491370
-491361
-491347
-491314
-491250
-491178
-491121
-491082
-491052
-491035
-491026
-491014
-490979
-490941
-490912
-490894
-490880
-490864
-490848
-490829
-490807
-490784
-490766
-490757
-490757
-490744
-490713
-490678
-490646
-490619
-490600
-490589
-490586
-490577
-490560
-490534
-490503
-490477
-490452
-490424
-490392
-490367
-490369
-490553
-490160
-490284
-490461
-490538
-490352
-490329
-490304
-490279
-490258
-490237
-490216
-490198
-490194
-490214
-490259
-490286
-490238
-490161
-490117
-490077
-490044
-490024
-490064
-490162
-489965
-489995
-490003
-489985
-489963
-489943
-489926
-489919
-489918
-489910
-489892
-489869
-489850
-489839
-489833
-489829
-489826
-489822
-489818
-489820
-489829
-489580
-489760
-489049
-489773
-489840
-489819
-489808
-489798
-489789
-489783
-489778
-489775
-489771
-489766
-489763
-489759
-489755
-489749
-489744
-489741
-489739
-489740
-489742
-489742
-489739
-489736
-489733
-489731
-489729
-489727
-489727
-489724
-489715
-489717
-489724
-489720
-489717
-489715
-489712
-489711
-489711
-489714
-489676
-489683
-489714
-492191
-492033
-491992
-491985
-492002
-492009
-492016
-491974
-491966
-491991
-492068
-492169
-492141
-492046
-491969
-491930
-491907
-491944
-492026
-492150
-492097
-491987
-491937
-491916
-491909
-491892
-491863
-491841
-491827
-491811
-491807
-491811
-491797
-491767
-491720
-491663
-491625
-491629
-491655
-491445
-491759
-491969
-491680
-491578
-491576
-491658
-491886
-491963
-491851
-491671
-491554
-491481
-491429
-491390
-491360
-491335
-491311
-491280
-491239
-491197
-491167
-491159
-491149
-491128
-491099
-491071
-491044
-491017
-490987
-490952
-490904
-490860
-490824
-490789
-490751
-490723
-490721
-490718
-490697
-490668
-490648
-490642
-490637
-490596
-490569
-490545
-490520
-490491
-490460
-490436
-490429
-490429
-490412
-490383
-490350
-490324
-490307
-490301
-490301
-490286
-490266
-490242
-490212
-490185
-490162
-490135
-490102
-490073
-490060
-490128
-489750
-490345
-490435
-490107
-490028
-490030
-490012
-489993
-489975
-489956
-489930
-489900
-489877
-489868
-489903
-489993
-489982
-489889
-489822
-489779
-489746
-489726
-489761
-489826
-489713
-489716
-489705
-489683
-489661
-489636
-489604
-489600
-489616
-489612
-489593
-489567
-489546
-489532
-489521
-489521
-489529
-489533
-489533
-489537
-489563
-488998
-489528
-488933
-489415
-489600
-489551
-489531
-489516
-489504
-489497
-489491
-489484
-489477
-489471
-489465
-489461
-489456
-489452
-489448
-489446
-489446
-489448
-489451
-489449
-489444
-489439
-489436
-489434
-489431
-489429
-489429
-489427
-489418
-489414
-489433
-489424
-489419
-489416
-489414
-489415
-489415
-489412
-489391
-489381
-489424
-491844
-491661
-491627
-491629
-491649
-491692
-491720
-491686
-491664
-491672
-491735
-491863
-491979
-491906
-491720
-491580
-491488
-491496
-491648
-491847
-491869
-491766
-491619
-491529
-491589
-491579
-491531
-491483
-491499
-491542
-491550
-491519
-491478
-491431
-491374
-491317
-491282
-491287
-491319
-491087
-491207
-491421
-491266
-491218
-491202
-491274
-491554
-491770
-491685
-491507
-491343
-491206
-491107
-491052
-491024
-491005
-490986
-490958
-490919
-490875
-490842
-490830
-490824
-490806
-490773
-490731
-490688
-490648
-490610
-490573
-490540
-490517
-490498
-490474
-490434
-490392
-490371
-490359
-490338
-490306
-490288
-490305
-490318
-490343
-490328
-490286
-490208
-490165
-490130
-490096
-490079
-490084
-490084
-490060
-490023
-489991
-489971
-489961
-489961
-489951
-489940
-489923
-489898
-489866
-489832
-489796
-489763
-489738
-489717
-489674
-489443
-489808
-490292
-489805
-489697
-489695
-489681
-489666
-489654
-489638
-489611
-489575
-489542
-489523
-489529
-489609
-489669
-489584
-489497
-489449
-489416
-489402
-489426
-489438
-489403
-489386
-489369
-489353
-489339
-489304
-489215
-489185
-489265
-489278
-489264
-489238
-489215
-489198
-489180
-489173
-489181
-489203
-489208
-489215
-489212
-488733
-489328
-488897
-489373
-489276
-489223
-489203
-489190
-489183
-489177
-489171
-489162
-489152
-489141
-489132
-489124
-489119
-489115
-489113
-489116
-489121
-489123
-489120
-489114
-489109
-489106
-489102
-489099
-489097
-489094
-489092
-489091
-489087
-489080
-489097
-489090
-489086
-489084
-489082
-489082
-489080
-489070
-489043
-489055
-489087
-491402
-491288
-491258
-491270
-491292
-491354
-491365
-491313
-491242
-491230
-491254
-491392
-491704
-491809
-491492
-491037
-490835
-490949
-491146
-491387
-491533
-491582
-491402
-491077
-491323
-491341
-491095
-491043
-491208
-491297
-491279
-491205
-491131
-491073
-491012
-490947
-490899
-490888
-490863
-490694
-490748
-490909
-490905
-490887
-490867
-490876
-491061
-491298
-491251
-491145
-491029
-490912
-490813
-490769
-490754
-490758
-490738
-490678
-490599
-490529
-490482
-490452
-490442
-490432
-490405
-490363
-490324
-490291
-490257
-490209
-490155
-490117
-490097
-490086
-490064
-490035
-490011
-489995
-489964
-489913
-489882
-489876
-489885
-489901
-489959
-489942
-489882
-489825
-489786
-489749
-489728
-489725
-489725
-489696
-489652
-489614
-489589
-489575
-489569
-489581
-489583
-489565
-489537
-489498
-489449
-489406
-489374
-489353
-489322
-489248
-489145
-489334
-489700
-489383
-489325
-489333
-489324
-489306
-489292
-489272
-489239
-489199
-489167
-489147
-489152
-489213
-489298
-489237
-489141
-489087
-489054
-489042
-489051
-489068
-489049
-489028
-489007
-488992
-488983
-488960
-488803
-488739
-488907
-488921
-488904
-488878
-488851
-488834
-488822
-488795
-488755
-488797
-488826
-488844
-488513
-488660
-489065
-488899
-489167
-488852
-488836
-488827
-488823
-488823
-488821
-488814
-488803
-488790
-488777
-488765
-488755
-488747
-488743
-488742
-488749
-488755
-488752
-488746
-488741
-488738
-488735
-488732
-488729
-488726
-488723
-488721
-488719
-488717
-488717
-488720
-488718
-488717
-488715
-488713
-488711
-488706
-488686
-488624
-488676
-488722
-490944
-490884
-490896
-490937
-490984
-491036
-491020
-490871
-490778
-490747
-490773
-490906
-491286
-491636
-491477
-490939
-490449
-490538
-490722
-490823
-490922
-491097
-491254
-491360
-491343
-491193
-490887
-490712
-490763
-490905
-490941
-490877
-490763
-490677
-490612
-490550
-490492
-490454
-490417
-490319
-490329
-490516
-490593
-490548
-490492
-490457
-490492
-490607
-490609
-490554
-490498
-490443
-490438
-490510
-490594
-490575
-490494
-490378
-490267
-490176
-490107
-490074
-490072
-490084
-490060
-490013
-489959
-489916
-489872
-489827
-489774
-489725
-489696
-489678
-489652
-489619
-489594
-489582
-489559
-489514
-489487
-489474
-489459
-489449
-489465
-489470
-489445
-489419
-489399
-489371
-489339
-489318
-489304
-489289
-489257
-489210
-489161
-489150
-489165
-489179
-489174
-489150
-489114
-489069
-489019
-488970
-488927
-488907
-488902
-488871
-488846
-488932
-489028
-488949
-488919
-488936
-488930
-488907
-488883
-488851
-488815
-488784
-488763
-488754
-488760
-488796
-488865
-488848
-488773
-488699
-488659
-488638
-488643
-488665
-488685
-488671
-488610
-488562
-488546
-488527
-488360
-488313
-488514
-488515
-488498
-488472
-488444
-488426
-488409
-488365
-488262
-488297
-488350
-488365
-488115
-488830
-489098
-488636
-488456
-488397
-488400
-488420
-488460
-488468
-488442
-488417
-488403
-488389
-488377
-488367
-488359
-488351
-488344
-488341
-488344
-488346
-488341
-488336
-488333
-488332
-488328
-488324
-488321
-488318
-488315
-488312
-488310
-488310
-488311
-488311
-488310
-488309
-488307
-488305
-488305
-488304
-488286
-488222
-488302
-488315
-490411
-490440
-490545
-490698
-490955
-490972
-490652
-490268
-490153
-490180
-490276
-490489
-490819
-491109
-490984
-490458
-490152
-490262
-490362
-490360
-490351
-490415
-490375
-490807
-491233
-491092
-490544
-490227
-490306
-490463
-490553
-490526
-490415
-490268
-490188
-490127
-490083
-490038
-489985
-489930
-490001
-490204
-490270
-490192
-490114
-490064
-490029
-490002
-489959
-489914
-489877
-489862
-489909
-490072
-490229
-490142
-490005
-489911
-489831
-489754
-489700
-489687
-489742
-489802
-489766
-489654
-489533
-489464
-489423
-489388
-489349
-489321
-489309
-489271
-489217
-489167
-489131
-489112
-489095
-489075
-489058
-489037
-489013
-488997
-488995
-488990
-488975
-488960
-488939
-488910
-488878
-488849
-488829
-488816
-488810
-488788
-488745
-488737
-488748
-488749
-488727
-488685
-488646
-488606
-488563
-488517
-488487
-488476
-488477
-488477
-488471
-488483
-488499
-488483
-488474
-488497
-488488
-488459
-488423
-488385
-488361
-488352
-488344
-488331
-488320
-488323
-488364
-488403
-488373
-488301
-488247
-488215
-488212
-488242
-488297
-488305
-488197
-488077
-488033
-488024
-487946
-487937
-488043
-488038
-488038
-488020
-487993
-487961
-487912
-487851
-487785
-487853
-487936
-487942
-487900
-488467
-488729
-488033
-487952
-487957
-487964
-487986
-488009
-487994
-487975
-487965
-487957
-487948
-487942
-487939
-487934
-487926
-487916
-487907
-487902
-487897
-487892
-487889
-487888
-487890
-487886
-487882
-487878
-487874
-487869
-487861
-487859
-487863
-487866
-487868
-487866
-487864
-487862
-487860
-487860
-487860
-487856
-487848
-487857
-487862
-489926
-489993
-490205
-490708
-490994
-490859
-490242
-489736
-489594
-489676
-489820
-490000
-490181
-490258
-490051
-489813
-489811
-489901
-489969
-489959
-489964
-489955
-489739
-490591
-490904
-490638
-489839
-489698
-489842
-489998
-490122
-490229
-490146
-489939
-489758
-489676
-489619
-489589
-489583
-489599
-489663
-489788
-489842
-489790
-489706
-489617
-489540
-489473
-489409
-489343
-489297
-489312
-489423
-489645
-489830
-489730
-489554
-489433
-489360
-489295
-489248
-489231
-489258
-489301
-489257
-489140
-489033
-488956
-488897
-488861
-488854
-488904
-488982
-488853
-488727
-488684
-488651
-488627
-488609
-488592
-488569
-488540
-488514
-488502
-488499
-488493
-488478
-488459
-488435
-488406
-488377
-488351
-488325
-488303
-488299
-488287
-488235
-488265
-488293
-488271
-488219
-488165
-488124
-488105
-488099
-488077
-488053
-488037
-488026
-488017
-488008
-488001
-487996
-487989
-487990
-488004
-487998
-487963
-487921
-487886
-487871
-487876
-487884
-487875
-487852
-487844
-487868
-487927
-487918
-487848
-487778
-487738
-487722
-487737
-487785
-487819
-487764
-487656
-487573
-487567
-487558
-487550
-487522
-487493
-487510
-487504
-487478
-487433
-487368
-487335
-487357
-487448
-487499
-487501
-487474
-487526
-487605
-487482
-487491
-487495
-487493
-487489
-487486
-487476
-487477
-487479
-487475
-487473
-487476
-487482
-487481
-487468
-487452
-487437
-487426
-487418
-487412
-487409
-487410
-487411
-487409
-487402
-487400
-487394
-487387
-487380
-487380
-487384
-487388
-487387
-487386
-487383
-487381
-487378
-487375
-487373
-487368
-487361
-487368
-487370
-489425
-489509
-489787
-490282
-490628
-490395
-489369
-489121
-489227
-489313
-489413
-489570
-489687
-489618
-489413
-489292
-489303
-489407
-489660
-489862
-489845
-489785
-490038
-490634
-490730
-489829
-489161
-489200
-489286
-489421
-489734
-490125
-490129
-489742
-489415
-489287
-489261
-489316
-489373
-489375
-489363
-489340
-489291
-489204
-489119
-489053
-489014
-488995
-488977
-488922
-488853
-488813
-488846
-489015
-489192
-489174
-489092
-489010
-488975
-488921
-488844
-488760
-488723
-488717
-488674
-488583
-488485
-488396
-488336
-488313
-488331
-488476
-488757
-488485
-488249
-488186
-488146
-488116
-488090
-488063
-488032
-488003
-487985
-487978
-487965
-487973
-487958
-487935
-487911
-487889
-487868
-487840
-487799
-487766
-487753
-487725
-487660
-487715
-487738
-487701
-487611
-487530
-487526
-487558
-487618
-487647
-487620
-487591
-487568
-487546
-487519
-487498
-487485
-487472
-487463
-487457
-487448
-487422
-487381
-487354
-487341
-487348
-487369
-487380
-487394
-487409
-487431
-487420
-487368
-487294
-487242
-487208
-487185
-487171
-487175
-487200
-487221
-487209
-487162
-487127
-487121
-487115
-486982
-486905
-486908
-486858
-486820
-486809
-486779
-486835
-486926
-486986
-487005
-487002
-486989
-486977
-486980
-486971
-486975
-486978
-486975
-486972
-486958
-486933
-486934
-486961
-486971
-486976
-486982
-486992
-486990
-486974
-486953
-486935
-486921
-486909
-486901
-486897
-486894
-486893
-486890
-486888
-486887
-486874
-486866
-486867
-486870
-486872
-486872
-486871
-486871
-486869
-486865
-486859
-486854
-486847
-486837
-486835
-486835
-486841
-489068
-489110
-489219
-489236
-489168
-488796
-488536
-488664
-488772
-488870
-489038
-489236
-489282
-489084
-488856
-488754
-488794
-489010
-489375
-489606
-489587
-488964
-488593
-489144
-489236
-488644
-488610
-488617
-488654
-488857
-489542
-490002
-490038
-489568
-489096
-488967
-489060
-489130
-489115
-489052
-488910
-488775
-488671
-488581
-488526
-488493
-488521
-488610
-488586
-488460
-488350
-488275
-488235
-488244
-488314
-488370
-488393
-488449
-488514
-488472
-488366
-488243
-488172
-488141
-488101
-488006
-487887
-487816
-487802
-487833
-487878
-488204
-488664
-488319
-487855
-487828
-487754
-487646
-487569
-487517
-487479
-487468
-487485
-487455
-487329
-487425
-487445
-487409
-487385
-487358
-487334
-487290
-487235
-487193
-487160
-487077
-487026
-487071
-487107
-487079
-487033
-486974
-487002
-487077
-487124
-487136
-487130
-487122
-487094
-487054
-487018
-486961
-486936
-486917
-486896
-486873
-486855
-486832
-486819
-486809
-486810
-486810
-486822
-486873
-486961
-486952
-486880
-486819
-486773
-486739
-486710
-486678
-486648
-486621
-486604
-486605
-486631
-486665
-486672
-486631
-486658
-486671
-486322
-486219
-486308
-486186
-486126
-486099
-486022
-486214
-486405
-486452
-486460
-486456
-486443
-486430
-486414
-486391
-486391
-486402
-486411
-486399
-486376
-486332
-486367
-486438
-486453
-486447
-486441
-486443
-486446
-486435
-486413
-486394
-486378
-486364
-486354
-486348
-486345
-486342
-486340
-486338
-486334
-486328
-486324
-486321
-486320
-486320
-486322
-486324
-486322
-486318
-486311
-486305
-486299
-486293
-486288
-486273
-486279
-486277
-489403
-488771
-488099
-487728
-487566
-487684
-487920
-488098
-488197
-488298
-488506
-488696
-488556
-488263
-488139
-488152
-488267
-488551
-488902
-489024
-488610
-488008
-487882
-487938
-487959
-487968
-487996
-488011
-488039
-488234
-488943
-489533
-489497
-489071
-488507
-488503
-488554
-488448
-488309
-488189
-488109
-488088
-488068
-488063
-488023
-487980
-487942
-487919
-487873
-487815
-487748
-487687
-487653
-487649
-487668
-487683
-487701
-487755
-487812
-487786
-487732
-487663
-487615
-487609
-487569
-487416
-487270
-487184
-487138
-487125
-487226
-487918
-488425
-488074
-487241
-487202
-487288
-487349
-487276
-487092
-486970
-486940
-486972
-486853
-486589
-486801
-486874
-486846
-486832
-486807
-486760
-486698
-486644
-486606
-486558
-486434
-486416
-486495
-486533
-486524
-486505
-486506
-486509
-486499
-486485
-486479
-486494
-486534
-486505
-486467
-486519
-486399
-486347
-486326
-486303
-486274
-486239
-486217
-486222
-486244
-486256
-486260
-486272
-486351
-486474
-486402
-486253
-486211
-486198
-486193
-486163
-486123
-486088
-486055
-486025
-486009
-486012
-486027
-486042
-486030
-486118
-486303
-485756
-485517
-485769
-485718
-485625
-485349
-484951
-485185
-485807
-485886
-485886
-485877
-485867
-485853
-485840
-485833
-485837
-485836
-485832
-485822
-485810
-485769
-485818
-485877
-485875
-485861
-485853
-485852
-485852
-485841
-485821
-485804
-485790
-485777
-485768
-485764
-485761
-485758
-485756
-485754
-485752
-485748
-485741
-485734
-485735
-485739
-485741
-485738
-485732
-485723
-485716
-485711
-485708
-485705
-485697
-485693
-485671
-485694
-490119
-489570
-488502
-487330
-486821
-487058
-487351
-487491
-487568
-487666
-487879
-487968
-487703
-487470
-487437
-487442
-487511
-487838
-488447
-488325
-487424
-487082
-487178
-487255
-487291
-487315
-487334
-487352
-487393
-487537
-488027
-488583
-488480
-488101
-487813
-487804
-487729
-487554
-487398
-487324
-487305
-487336
-487445
-487575
-487567
-487402
-487245
-487164
-487124
-487107
-487093
-487093
-487120
-487138
-487115
-487077
-487041
-487018
-486999
-486974
-486971
-486991
-487071
-487209
-487132
-486838
-486629
-486523
-486452
-486400
-486374
-486805
-487745
-486969
-486357
-486394
-486559
-486754
-486763
-486654
-486489
-486434
-486465
-486339
-486056
-486201
-486272
-486257
-486238
-486188
-486117
-486054
-486011
-485981
-485904
-485703
-485755
-485893
-485936
-485934
-485924
-485910
-485887
-485854
-485818
-485790
-485787
-485837
-485842
-485783
-486126
-485932
-485756
-485719
-485695
-485667
-485643
-485607
-485580
-485572
-485570
-485580
-485632
-485764
-485917
-485782
-485644
-485604
-485613
-485654
-485632
-485491
-485465
-485447
-485421
-485397
-485382
-485375
-485374
-485388
-485528
-485927
-485514
-485021
-485224
-485231
-485177
-484859
-484297
-484322
-484930
-485298
-485265
-485251
-485235
-485232
-485245
-485253
-485244
-485232
-485223
-485215
-485195
-485175
-485221
-485254
-485239
-485225
-485218
-485222
-485231
-485220
-485198
-485180
-485165
-485154
-485147
-485144
-485142
-485140
-485136
-485131
-485126
-485121
-485114
-485105
-485106
-485109
-485108
-485103
-485097
-485091
-485087
-485084
-485080
-485076
-485065
-485059
-485070
-485062
-489900
-489854
-489402
-487983
-486627
-486689
-486805
-486872
-486914
-487068
-487302
-487526
-487022
-486788
-486716
-486702
-486731
-487093
-488051
-487758
-486539
-486185
-486344
-486524
-486613
-486643
-486659
-486682
-486729
-486856
-487138
-487442
-487332
-487075
-486933
-486936
-486921
-486805
-486689
-486619
-486599
-486614
-486761
-486988
-486989
-486743
-486566
-486479
-486433
-486410
-486431
-486505
-486558
-486518
-486447
-486393
-486361
-486327
-486280
-486239
-486228
-486278
-486501