/*--------------------------------*- C++ -*----------------------------------*\
  =========                 |
  \\      /  F ield         | OpenFOAM: The Open Source CFD Toolbox
   \\    /   O peration     | Website:  https://openfoam.org
    \\  /    A nd           | Version:  8
     \\/     M anipulation  |
\*---------------------------------------------------------------------------*/
FoamFile
{
    version     2.0;
    format      ascii;
    class       volScalarField;
    location    "700";
    object      rho;
}
// * * * * * * * * * * * * * * * * * * * * * * * * * * * * * * * * * * * * * //

dimensions      [1 -3 0 0 0 0 0];

internalField   nonuniform List<scalar> 
20000
(
1003.48
1003.5
1003.5
1003.58
1003.71
1003.81
1003.84
1003.84
1003.84
1003.83
1003.81
1003.79
1003.81
1003.44
1002.99
1003.57
1005.75
1005.3
1003.53
1003.27
1003.64
1003.78
1003.82
1003.84
1003.85
1003.85
1003.8
1003.72
1003.63
1003.62
1003.6
1003.59
1003.61
1003.67
1003.75
1003.82
1003.84
1003.83
1003.78
1003.72
1003.7
1003.75
1003.88
1004.01
1004.08
1004.13
1004.08
1003.99
1003.85
1003.72
1003.64
1003.61
1003.67
1003.8
1003.94
1003.94
1003.3
1003.09
1003.56
1003.78
1003.85
1003.88
1003.93
1003.95
1003.87
1003.73
1003.47
1003.25
1003.36
1003.51
1003.7
1003.88
1003.97
1003.96
1003.92
1003.88
1003.86
1003.84
1003.83
1003.78
1003.81
1006.96
1003.35
1006.77
1003.81
1003.35
1003.46
1003.57
1003.69
1003.76
1003.75
1003.66
1003.61
1003.73
1003.82
1003.85
1003.88
1003.93
1003.99
1003.9
1003.8
1003.82
1003.86
1003.9
1003.96
1004
1003.97
1003.89
1003.78
1003.64
1003.62
1003.75
1003.83
1003.86
1003.89
1003.9
1003.88
1003.82
1003.79
1003.8
1003.82
1003.82
1003.82
1003.82
1003.82
1003.83
1003.84
1003.85
1003.85
1003.84
1003.84
1003.84
1003.84
1003.84
1003.84
1003.82
1003.81
1003.82
1003.85
1003.86
1003.86
1003.85
1003.85
1003.85
1003.86
1003.88
1003.88
1003.87
1003.86
1003.85
1003.85
1003.84
1003.83
1003.82
1003.89
1004.11
1004.21
1004.2
1004.05
1003.91
1003.84
1003.82
1003.81
1003.83
1003.84
1003.85
1003.85
1003.85
1003.85
1003.86
1003.85
1003.84
1003.84
1003.84
1003.84
1003.85
1003.84
1003.77
1003.83
1003.92
1003.9
1003.87
1003.8
1003.66
1003.44
1004.85
1003.73
1003.83
1003.85
1003.85
1003.85
1003.85
1003.85
1003.85
1003.85
1003.85
1003.85
1003.85
1003.85
1003.85
1011.07
1010.87
1010.68
1010.74
1011.01
1011.33
1011.47
1011.5
1011.47
1011.45
1011.4
1011.36
1011.66
1010.06
1008.56
1011.3
1016.24
1014.16
1010.32
1009.94
1010.92
1011.31
1011.46
1011.53
1011.57
1011.57
1011.52
1011.41
1011.25
1011.18
1011.06
1011
1011.04
1011.17
1011.31
1011.42
1011.46
1011.45
1011.38
1011.27
1011.17
1011.23
1011.45
1011.75
1011.89
1011.95
1011.89
1011.77
1011.61
1011.47
1011.34
1011.3
1011.44
1011.68
1011.77
1011.47
1009.99
1009.56
1010.74
1011.36
1011.53
1011.6
1011.69
1011.74
1011.72
1011.56
1011.15
1010.78
1010.69
1010.45
1010.54
1011.21
1011.6
1011.66
1011.62
1011.57
1011.55
1011.54
1011.54
1011.51
1011.34
1013.27
1006.31
1012.76
1010.54
1010.67
1010.76
1010.9
1011.15
1011.34
1011.38
1011.26
1011.17
1011.26
1011.37
1011.47
1011.57
1011.74
1011.93
1011.69
1011.4
1011.44
1011.54
1011.66
1011.72
1011.72
1011.66
1011.56
1011.42
1011.21
1011.11
1011.34
1011.47
1011.54
1011.59
1011.59
1011.51
1011.39
1011.37
1011.43
1011.47
1011.48
1011.47
1011.45
1011.45
1011.48
1011.51
1011.52
1011.53
1011.53
1011.52
1011.51
1011.5
1011.46
1011.44
1011.45
1011.47
1011.5
1011.52
1011.54
1011.53
1011.52
1011.52
1011.52
1011.55
1011.63
1011.67
1011.63
1011.59
1011.56
1011.53
1011.51
1011.49
1011.48
1011.65
1012.07
1012.17
1012.01
1011.77
1011.61
1011.61
1011.55
1011.54
1011.48
1011.52
1011.51
1011.53
1011.53
1011.55
1011.54
1011.53
1011.51
1011.5
1011.51
1011.52
1011.53
1011.5
1011.34
1011.46
1011.71
1011.71
1011.61
1011.27
1011.11
1010.98
1012.6
1011.38
1011.51
1011.53
1011.53
1011.53
1011.53
1011.53
1011.53
1011.53
1011.53
1011.53
1011.53
1011.53
1011.54
1018.46
1018.01
1017.82
1017.67
1018.14
1018.28
1018.61
1018.8
1018.97
1018.97
1018.83
1018.69
1021.84
1016.23
1012.31
1018.5
1023.24
1020.81
1017.42
1016.97
1018.14
1018.82
1019.07
1019.16
1019.22
1019.24
1019.21
1019.14
1019.05
1018.94
1018.79
1018.65
1018.7
1018.86
1018.99
1019.03
1019.03
1019.03
1019.03
1018.99
1018.92
1018.85
1018.99
1019.18
1019.33
1019.42
1019.41
1019.34
1019.26
1019.23
1019.19
1019.27
1019.45
1019.64
1019.57
1019.08
1017.36
1016.65
1017.89
1018.83
1019.11
1019.22
1019.28
1019.32
1019.32
1019.29
1019.25
1019.15
1018.86
1018.08
1017.59
1018.14
1018.71
1019.03
1019.15
1019.19
1019.21
1019.23
1019.26
1019.31
1019.44
1020.37
1016.41
1019.81
1018.7
1018.59
1018.5
1018.51
1018.69
1018.94
1019.09
1019.13
1019.08
1019.02
1019.02
1019.05
1019.16
1019.41
1019.63
1019.35
1019.02
1019
1019.12
1019.26
1019.29
1019.23
1019.2
1019.18
1019.14
1019.01
1018.94
1019.3
1019.1
1019.05
1019.17
1019.18
1019.1
1018.95
1018.92
1019.03
1019.12
1019.15
1019.13
1019.08
1019.03
1019.1
1019.16
1019.19
1019.19
1019.2
1019.19
1019.18
1019.14
1019.04
1019
1019.08
1019.15
1019.17
1019.18
1019.2
1019.19
1019.18
1019.17
1019.17
1019.19
1019.27
1019.35
1019.34
1019.32
1019.27
1019.21
1019.18
1019.19
1019.25
1019.51
1019.96
1019.94
1019.68
1019.46
1019.37
1019.37
1019.36
1019.3
1019.24
1019.2
1019.19
1019.18
1019.2
1019.19
1019.19
1019.17
1019.15
1019.16
1019.18
1019.19
1019.2
1019.13
1018.94
1019.07
1019.34
1019.41
1019.25
1018.77
1018.81
1019.26
1019.64
1019.27
1019.22
1019.2
1019.2
1019.2
1019.2
1019.2
1019.2
1019.19
1019.19
1019.2
1019.2
1019.22
1019.21
1025.02
1024.57
1024.38
1024.96
1024.99
1024.78
1024.52
1025.22
1026.03
1025.95
1025.26
1026.77
1031.13
1020.59
1017.38
1022.82
1028.24
1027.04
1024.34
1023.83
1025.25
1026.3
1026.66
1026.8
1026.88
1026.92
1026.88
1026.8
1026.73
1026.65
1026.52
1026.36
1026.4
1026.58
1026.68
1026.67
1026.62
1026.59
1026.63
1026.72
1026.79
1026.68
1026.52
1026.32
1026.39
1026.67
1026.83
1026.89
1026.92
1026.94
1027.07
1027.1
1027.1
1027.06
1027.03
1026.64
1025.62
1024.42
1025.03
1025.85
1026.3
1026.51
1026.63
1026.73
1026.79
1026.85
1026.9
1026.92
1026.82
1026.21
1025.39
1025.43
1025.85
1026.24
1026.55
1026.73
1026.82
1026.87
1026.92
1027
1027.14
1027.49
1026.54
1026.99
1026.53
1026.42
1026.35
1026.3
1026.33
1026.5
1026.68
1026.79
1026.83
1026.8
1026.76
1026.75
1026.81
1027.01
1027.12
1026.89
1026.62
1026.53
1026.61
1026.75
1026.82
1026.83
1026.83
1026.83
1026.79
1026.69
1026.77
1028.87
1027.1
1026.3
1026.64
1026.84
1026.84
1026.7
1026.42
1026.38
1026.56
1026.7
1026.71
1026.58
1026.45
1026.61
1026.77
1026.82
1026.84
1026.84
1026.84
1026.83
1026.78
1026.64
1026.62
1026.71
1026.76
1026.79
1026.81
1026.85
1026.87
1026.85
1026.84
1026.83
1026.82
1026.86
1026.9
1026.92
1026.94
1026.92
1026.85
1026.83
1026.87
1026.96
1027.24
1027.72
1027.71
1027.48
1027.19
1027.09
1027.05
1027
1026.91
1026.87
1026.83
1026.82
1026.82
1026.83
1026.83
1026.82
1026.81
1026.8
1026.81
1026.83
1026.86
1026.85
1026.69
1026.56
1026.72
1026.88
1026.92
1026.83
1026.59
1026.62
1026.89
1027.11
1026.96
1026.88
1026.85
1026.85
1026.85
1026.85
1026.85
1026.85
1026.85
1026.85
1026.85
1026.86
1026.86
1026.86
1032.8
1032.6
1032.69
1032.77
1032.2
1031.15
1028.85
1026.17
1025.12
1027.32
1031.7
1036.21
1039.89
1032.28
1031.7
1034.04
1034.27
1033.52
1031.58
1030.13
1031.5
1033.69
1034.51
1034.73
1034.83
1034.79
1034.62
1034.47
1034.37
1034.33
1034.13
1033.99
1034.02
1034.25
1034.34
1034.33
1034.25
1034.18
1034.19
1034.52
1034.87
1034.51
1033.93
1033.33
1033.21
1033.59
1034.12
1034.42
1034.76
1034.96
1034.77
1034.22
1033.87
1034.02
1034.25
1034.34
1033.88
1033.07
1033.05
1033.26
1033.42
1033.52
1033.56
1033.45
1033.1
1033.29
1033.7
1033.93
1033.81
1033.53
1033.24
1033.21
1033.28
1033.43
1033.75
1034.1
1034.33
1034.46
1034.55
1034.65
1034.76
1034.9
1034.69
1034.53
1034.27
1034.15
1034.09
1034.01
1033.97
1034.02
1034.18
1034.33
1034.42
1034.44
1034.44
1034.45
1034.51
1034.66
1034.69
1034.5
1034.25
1034.09
1034.09
1034.28
1034.41
1034.46
1034.46
1034.46
1034.4
1034.13
1034.89
1047.63
1040.55
1033.6
1033.83
1034.36
1034.48
1034.38
1033.99
1033.54
1033.64
1033.86
1033.94
1033.73
1033.62
1034.01
1034.33
1034.43
1034.46
1034.46
1034.47
1034.45
1034.38
1034.17
1034.29
1034.35
1034.38
1034.4
1034.43
1034.5
1034.53
1034.52
1034.49
1034.46
1034.45
1034.46
1034.48
1034.49
1034.5
1034.5
1034.49
1034.5
1034.53
1034.59
1034.83
1035.35
1035.34
1035.41
1034.9
1034.72
1034.62
1034.53
1034.48
1034.47
1034.46
1034.46
1034.46
1034.46
1034.46
1034.45
1034.45
1034.45
1034.47
1034.51
1034.54
1034.45
1034.23
1034.19
1034.36
1034.44
1034.45
1034.44
1034.4
1034.38
1034.43
1034.57
1034.7
1034.56
1034.48
1034.48
1034.48
1034.48
1034.48
1034.48
1034.48
1034.48
1034.48
1034.49
1034.51
1034.49
1040.81
1041.27
1041.37
1041.07
1040.42
1038.61
1034.3
1029.34
1027.41
1028.37
1031.22
1037.59
1046.05
1042.8
1041.74
1041.79
1041.67
1041.07
1039.05
1035.75
1036.03
1040.43
1042.67
1042.78
1042.65
1042.44
1042.25
1042.1
1042.07
1041.87
1041.88
1041.53
1041.59
1041.83
1041.95
1041.95
1041.87
1041.65
1041.59
1043.52
1044.38
1041.63
1040.21
1040.08
1039.69
1039.92
1040.44
1041.49
1042.18
1042.41
1042.32
1042
1041.72
1041.8
1041.87
1041.92
1041.84
1041.67
1041.52
1041.46
1041.41
1041.29
1041.02
1040.11
1038.84
1038.95
1039.92
1040.71
1040.89
1040.86
1040.92
1041.03
1040.99
1040.88
1040.96
1041.34
1041.75
1042.01
1042.16
1042.27
1042.38
1042.46
1042.4
1042.22
1042.01
1041.88
1041.8
1041.7
1041.53
1041.4
1041.52
1041.8
1041.99
1042.06
1042.08
1042.11
1042.2
1042.39
1042.44
1042.28
1042.06
1041.79
1041.64
1041.74
1041.96
1042.06
1042.1
1042.06
1041.7
1040.69
1049.13
1059.47
1053.49
1040.22
1041.04
1041.95
1042.09
1042.03
1041.76
1041.35
1041.13
1041.06
1040.83
1040.48
1040.49
1041.23
1041.84
1042.03
1042.06
1042.06
1042.05
1042.04
1041.81
1041.41
1042.43
1042.07
1042.02
1042.04
1042.08
1042.12
1042.17
1042.16
1042.12
1042.08
1042.08
1042.08
1042.09
1042.09
1042.09
1042.1
1042.1
1042.11
1042.12
1042.15
1042.35
1043.08
1042.81
1045.81
1042.58
1042.16
1042.11
1042.08
1042.08
1042.08
1042.08
1042.08
1042.08
1042.08
1042.08
1042.08
1042.08
1042.1
1042.12
1042.13
1042.12
1042.05
1041.88
1041.84
1041.94
1042.01
1042.04
1042.05
1042.06
1042.05
1042.05
1042.1
1042.32
1042.25
1042.1
1042.09
1042.09
1042.1
1042.1
1042.09
1042.09
1042.09
1042.07
1042.21
1042.15
1042.09
1048.3
1049.06
1049.2
1048.98
1048.48
1047.54
1046.75
1045.97
1045.51
1044.17
1041.81
1044.32
1050.54
1050.68
1049.69
1049.3
1048.97
1048.46
1046.72
1042.66
1041.88
1046.37
1049.48
1049.62
1049.61
1049.63
1049.63
1049.64
1049.69
1049.92
1049.99
1049.48
1049.27
1049.31
1049.43
1049.46
1049.36
1049.06
1049.51
1054.21
1051.32
1046.15
1043.82
1045.25
1045.74
1045.57
1046.06
1048.07
1049.44
1049.68
1049.65
1049.6
1049.57
1049.56
1049.55
1049.52
1049.48
1049.46
1049.47
1049.48
1049.46
1049.4
1049.18
1048.42
1047.13
1047.34
1048.13
1048.4
1048.16
1048.07
1048.34
1048.68
1048.75
1048.58
1048.43
1048.6
1048.97
1049.41
1049.68
1049.84
1049.98
1050.1
1050.03
1049.86
1049.72
1049.66
1049.62
1049.54
1049.33
1049
1048.77
1049.01
1049.44
1049.66
1049.73
1049.78
1049.94
1050.2
1050.14
1050
1049.85
1049.7
1049.52
1049.54
1049.67
1049.76
1049.74
1049.66
1048.99
1045.56
1053.9
1059.08
1057.37
1044.75
1048.64
1049.59
1049.73
1049.74
1049.68
1049.53
1049.27
1048.9
1048.38
1047.65
1046.78
1047.43
1048.91
1049.55
1049.6
1049.59
1049.57
1049.61
1048.88
1047.94
1052.6
1050.13
1049.72
1049.69
1049.7
1049.74
1049.81
1049.81
1049.73
1049.69
1049.69
1049.69
1049.69
1049.69
1049.69
1049.69
1049.68
1049.68
1049.65
1049.54
1049.66
1051.36
1051.59
1065.61
1050.91
1049.39
1049.59
1049.65
1049.67
1049.69
1049.73
1049.75
1049.74
1049.72
1049.7
1049.67
1049.67
1049.68
1049.69
1049.69
1049.68
1049.66
1049.58
1049.5
1049.51
1049.57
1049.62
1049.64
1049.66
1049.66
1049.65
1049.66
1049.85
1049.87
1049.7
1049.68
1049.69
1049.69
1049.7
1049.69
1049.69
1049.7
1049.64
1050.44
1050.03
1049.63
1053.36
1055.87
1056.13
1055.91
1055.4
1055.43
1055.8
1056.27
1056.47
1055.93
1054.02
1052.88
1055.49
1056.8
1056.83
1056.76
1056.51
1056.02
1054.19
1051.29
1051.64
1055.23
1056.58
1056.86
1056.97
1057.09
1057.19
1057.29
1057.42
1057.67
1057.88
1057.5
1057.04
1056.96
1056.99
1057.04
1057.03
1056.6
1056.03
1060.38
1052.5
1048.58
1050.64
1054.12
1054.42
1053.01
1050.76
1052.51
1055.63
1056.72
1057.01
1057.08
1057.12
1057.14
1057.14
1057.12
1057.11
1057.1
1057.11
1057.12
1057.11
1057.04
1056.81
1056.43
1056.11
1056.2
1056.28
1056.09
1055.7
1055.39
1055.59
1056.05
1056.33
1056.34
1056.29
1056.12
1055.93
1055.84
1056.36
1056.89
1057.23
1057.32
1057.32
1057.36
1057.36
1057.37
1057.4
1057.4
1057.3
1056.98
1056.52
1056.47
1056.88
1057.25
1057.4
1057.45
1057.52
1057.58
1057.45
1057.44
1057.45
1057.47
1057.49
1057.45
1057.39
1057.34
1057.3
1057.22
1056.72
1051.56
1062.56
1059.4
1054.6
1052.26
1057.02
1057.2
1057.29
1057.33
1057.35
1057.33
1057.27
1057.12
1056.77
1055.95
1054.56
1053.74
1054.93
1056.65
1057.1
1057.16
1057.21
1057.29
1056.04
1053.3
1058.68
1057.74
1057.29
1057.27
1057.29
1057.36
1057.48
1057.46
1057.33
1057.28
1057.28
1057.28
1057.28
1057.28
1057.29
1057.28
1057.26
1057.2
1057.11
1056.89
1056.59
1063.31
1058.62
1077.67
1058.25
1056.58
1057.09
1057.22
1057.25
1057.27
1057.29
1057.3
1057.29
1057.27
1057.25
1057.23
1057.23
1057.24
1057.26
1057.27
1057.27
1057.25
1057.19
1057.1
1057.08
1057.13
1057.19
1057.22
1057.24
1057.23
1057.22
1057.2
1057.24
1057.45
1057.35
1057.18
1057.25
1057.28
1057.29
1057.29
1057.27
1057.22
1057.12
1058.17
1057.97
1057.15
1058.76
1062.5
1063.41
1063.53
1063.07
1062.83
1062.58
1063.43
1063.51
1062.98
1061.37
1059.24
1060.23
1062.56
1064.06
1064.33
1064.34
1063.39
1061.64
1058.87
1060.26
1062.98
1064.14
1064.47
1064.51
1064.58
1064.74
1064.86
1065
1065.21
1065.08
1064.67
1064.59
1064.67
1064.75
1064.83
1064.75
1064.13
1063.33
1068.29
1060.4
1055.05
1061.95
1064.35
1064.19
1062.05
1056.57
1054.78
1057.3
1061.21
1063.33
1064.18
1064.49
1064.62
1064.67
1064.69
1064.69
1064.71
1064.77
1064.73
1064.54
1064.06
1063.78
1063.75
1063.9
1064.06
1064.1
1063.94
1063.57
1063.14
1063.09
1063.24
1063.43
1063.69
1064
1064.11
1063.7
1063.36
1063.48
1063.8
1063.92
1063.73
1063.57
1064.29
1064.7
1064.94
1065.07
1065.19
1065.25
1065.17
1064.81
1064.43
1064.48
1064.74
1064.92
1064.97
1064.95
1064.84
1064.64
1064.79
1065.01
1065.14
1065.18
1065.07
1064.88
1064.75
1064.73
1064.73
1064.67
1062.89
1072.28
1057.8
1055.47
1063.26
1065.07
1064.74
1064.8
1064.87
1064.89
1064.88
1064.87
1064.83
1064.79
1064.62
1063.54
1061.22
1061.41
1063.38
1064.45
1064.72
1064.8
1064.88
1063.78
1062.08
1064.92
1064.75
1064.67
1064.7
1064.75
1065.01
1065.51
1065.43
1064.98
1064.89
1064.87
1064.88
1064.91
1065.03
1065.18
1065.1
1064.86
1064.7
1064.58
1064.38
1063.81
1077.61
1065.18
1079.32
1067.99
1063.57
1064.56
1064.75
1064.81
1064.83
1064.83
1064.84
1064.84
1064.84
1064.83
1064.82
1064.82
1064.83
1064.84
1064.84
1064.84
1064.79
1064.69
1064.58
1064.59
1064.68
1064.76
1064.79
1064.81
1064.81
1064.8
1064.78
1064.79
1064.97
1065.07
1064.59
1064.79
1064.86
1064.9
1064.9
1064.85
1064.8
1064.85
1065.37
1065.61
1064.58
1066.75
1070.75
1071.54
1071.52
1071.04
1070.02
1069.29
1069.86
1070.2
1070.05
1068.85
1066.3
1064.09
1065.77
1069.39
1071.73
1073.28
1073.14
1070.08
1065.99
1065.7
1068.04
1071.11
1072.86
1071.61
1071.57
1072.09
1072.81
1072.44
1071.48
1071.18
1071.6
1072.05
1072.33
1072.42
1072.42
1072.36
1071.85
1071.01
1075.92
1072.98
1068.08
1071.38
1072.25
1072.29
1070.45
1064.2
1059.39
1061.1
1064.67
1067.7
1069.95
1071.29
1071.88
1072.04
1072.08
1072.04
1072.09
1072.15
1072.17
1071.99
1071.57
1071.19
1071.1
1071.29
1071.53
1071.66
1071.62
1071.48
1071.3
1071.09
1070.91
1070.82
1070.9
1071.32
1071.73
1071.68
1071.5
1071.6
1071.94
1071.96
1071.25
1070.71
1069.98
1070.16
1070.88
1072.31
1072.85
1073.03
1073.05
1072.79
1072.25
1071.87
1071.97
1072.26
1072.42
1072.46
1072.4
1072.21
1072.28
1072.35
1072.49
1072.55
1072.49
1072.37
1072.27
1072.22
1072.26
1072.46
1073.28
1078.35
1070.1
1059.39
1070
1072.28
1072.15
1072.24
1072.34
1072.3
1072.25
1072.26
1072.3
1072.31
1072.24
1071.81
1069.89
1068.52
1070.21
1071.74
1072.22
1072.35
1072.25
1071.49
1071.06
1071.79
1071.99
1072.03
1071.98
1071.96
1072.48
1074.18
1074.68
1072.94
1072.53
1072.45
1072.44
1072.46
1072.59
1072.86
1072.96
1072.73
1072.26
1072.14
1072
1072.1
1082.83
1070.29
1079.54
1069.32
1071.22
1072.15
1072.32
1072.36
1072.37
1072.37
1072.38
1072.38
1072.39
1072.4
1072.41
1072.45
1072.47
1072.47
1072.44
1072.32
1072.17
1072.1
1072.11
1072.19
1072.27
1072.32
1072.36
1072.38
1072.39
1072.39
1072.39
1072.38
1072.47
1072.61
1072.22
1072.35
1072.4
1072.41
1072.42
1072.39
1072.4
1072.59
1073.15
1072.93
1072.23
1075.89
1078.2
1078.9
1078.77
1078.36
1077.02
1076.58
1077.33
1078.54
1078.73
1078.33
1075.8
1069.94
1068.05
1074.06
1082.58
1086.22
1084.01
1080.18
1075.47
1072.71
1071.91
1075.51
1081.86
1077.16
1076.61
1080.93
1081.64
1078.36
1076.59
1076.85
1078.14
1079.26
1079.74
1079.89
1080.02
1080.16
1080
1080.35
1083.56
1082.28
1078.95
1078.88
1078.95
1079
1078.41
1074.32
1069.31
1070.02
1071.87
1073.76
1075.47
1076.87
1077.42
1077.51
1077.18
1077.24
1077.97
1078.91
1079.46
1079.48
1079.3
1078.91
1078.65
1078.67
1078.86
1078.9
1078.84
1078.78
1078.95
1079.21
1079.24
1079.06
1078.81
1078.82
1078.95
1078.98
1078.94
1079.25
1079.96
1080.25
1080
1079.51
1078.94
1077.63
1077.84
1078.87
1079.77
1080.16
1080.27
1080.01
1079.48
1078.99
1079.1
1079.52
1079.85
1080
1080.07
1080.04
1079.72
1079.57
1079.73
1079.87
1079.91
1079.92
1079.91
1079.92
1080.04
1080.51
1081.87
1083.84
1079.88
1072.4
1078.6
1079.68
1079.45
1079.52
1079.71
1079.68
1079.61
1079.62
1079.71
1079.76
1079.7
1079.32
1077.97
1076.21
1077.3
1078.95
1079.6
1079.77
1079.6
1079.16
1078.68
1078.94
1079.18
1079.35
1079.36
1079.3
1079.56
1082.45
1083.61
1080.3
1079.9
1079.94
1079.95
1079.96
1080
1080.13
1080.61
1081.35
1080.55
1080.06
1079.77
1086.18
1083.74
1075.97
1079.25
1073.81
1079.79
1079.91
1079.91
1079.88
1079.82
1079.79
1079.81
1079.86
1079.89
1079.93
1079.97
1080.02
1080.06
1080.05
1080.01
1079.82
1079.66
1079.68
1079.75
1079.8
1079.83
1079.86
1079.9
1079.92
1079.93
1079.94
1079.94
1079.95
1079.98
1079.99
1079.91
1079.93
1079.93
1079.94
1079.94
1079.95
1080.03
1080.42
1081.59
1080.62
1079.72
1084.43
1085.61
1085.53
1084.98
1084.23
1083.15
1083.06
1085.31
1086.74
1087.23
1086.81
1084.55
1077.86
1071.67
1074.57
1084.18
1092.9
1091.31
1087.89
1085.89
1084.04
1080.95
1078.29
1076.57
1076.96
1079.51
1084.69
1087.61
1086.56
1083.9
1083.19
1084.24
1086.02
1087.05
1087.47
1087.67
1087.93
1088.17
1088.64
1090.3
1089.93
1086.44
1084.89
1085.37
1085.96
1086.06
1084.86
1082.32
1082
1082.7
1083.32
1083.83
1083.59
1082.16
1080.53
1080.66
1081.81
1083.52
1084.98
1085.91
1086.33
1086.19
1085.72
1085.13
1085.14
1085.45
1085.78
1085.9
1086.07
1086.2
1086.39
1086.62
1086.63
1086.5
1086.48
1086.62
1086.66
1086.59
1086.8
1087.41
1087.66
1087.54
1087.4
1087.23
1086.75
1086.56
1086.92
1087.22
1087.24
1087.16
1087.06
1086.8
1086.54
1086.36
1086.56
1087.06
1087.69
1087.74
1087.39
1087.06
1087.03
1087.21
1087.37
1087.47
1087.59
1087.83
1088.17
1088.31
1088.3
1088.8
1089.17
1087.39
1085.4
1086.69
1087.18
1086.79
1086.81
1087.05
1087.09
1087.05
1087.03
1087.07
1087.08
1086.95
1086.56
1085.72
1084.35
1084.55
1085.74
1086.75
1087.07
1087.07
1086.71
1086.16
1085.72
1085.83
1086.74
1087.37
1087.45
1087.66
1090.53
1091.29
1087.63
1087.48
1087.51
1087.5
1087.5
1087.55
1087.79
1088.55
1090.39
1089.81
1088.92
1088.7
1093.18
1080.51
1075.62
1083.93
1087.01
1088.01
1087.79
1087.37
1086.61
1086.44
1086.86
1087.21
1087.34
1087.4
1087.42
1087.43
1087.43
1087.44
1087.47
1087.45
1087.34
1087.25
1087.29
1087.33
1087.34
1087.34
1087.38
1087.42
1087.45
1087.46
1087.46
1087.49
1087.51
1087.51
1087.49
1087.46
1087.46
1087.46
1087.47
1087.47
1087.48
1087.5
1087.83
1088.99
1087.55
1087.3
1093.49
1093.07
1091.44
1089.11
1084.99
1084.52
1089.36
1095.33
1097.08
1096.59
1095.01
1091.46
1085.95
1081.09
1083.23
1092.14
1097.42
1095.58
1093.72
1093.45
1093.36
1092.2
1092.86
1085.95
1079.01
1081.32
1090.31
1095.53
1094.09
1091.33
1089.81
1090.26
1091.91
1093.92
1094.72
1095.14
1095.25
1095.51
1096.08
1096.78
1095.4
1091.84
1090.55
1091.55
1092.43
1092.73
1092.77
1092.74
1093.08
1093.46
1093.63
1093.47
1092.44
1089.61
1086.9
1088.11
1090.09
1091.31
1092.19
1092.85
1093.07
1092.65
1091.3
1089.98
1090.24
1091.66
1093.12
1093.6
1093.55
1093.34
1093.3
1093.39
1093.4
1093.68
1094.13
1094.47
1094.61
1094.62
1094.69
1094.87
1094.92
1094.9
1094.85
1094.76
1094.61
1094.61
1094.75
1094.8
1094.76
1094.7
1094.66
1094.63
1094.5
1094.28
1094.01
1094.11
1094.65
1094.68
1094.42
1094.26
1094.4
1094.71
1094.9
1095.1
1095.37
1095.67
1095.78
1095.7
1095.55
1095.46
1095.44
1095
1094.5
1094.64
1094.7
1094.24
1094.27
1094.48
1094.58
1094.55
1094.42
1094.28
1094.22
1094.21
1094.14
1093.82
1092.96
1092.19
1092.53
1093.47
1094.03
1094.24
1094.03
1093.35
1092.36
1092.13
1093.78
1095.59
1096.18
1096.22
1097.46
1097.53
1095.64
1095.5
1095.19
1095.08
1095.12
1095.43
1096.2
1097.24
1098.37
1097.3
1095.96
1095.86
1096.55
1086.88
1082.31
1093.96
1095.44
1095.34
1095.15
1094.7
1094.28
1094.5
1094.77
1094.88
1094.91
1094.93
1094.89
1094.85
1094.81
1094.81
1094.83
1094.85
1094.86
1094.87
1094.9
1094.91
1094.88
1094.83
1094.88
1094.93
1094.96
1094.98
1095.03
1095.13
1095.16
1095.09
1095.02
1094.99
1094.99
1094.98
1094.98
1094.98
1094.98
1095.01
1095.12
1095.29
1095.11
1095
1101.05
1099.93
1096.62
1089.01
1084.64
1086.57
1095.8
1103.47
1105.65
1104.36
1102.04
1099.11
1096.15
1094.8
1098
1101.93
1102.19
1100.71
1099.44
1099.33
1098.99
1098.97
1102.24
1089.38
1084.48
1088.53
1100.94
1103.22
1100.85
1098.33
1096.53
1095.06
1096.21
1099.01
1101.32
1102.16
1102.65
1102.79
1102.57
1102.01
1100.71
1098.48
1097.38
1097.91
1098.84
1099.78
1100.52
1101.14
1101.73
1102.33
1102.57
1101.93
1099.93
1096.33
1093.33
1094.67
1097.11
1098.68
1099.45
1099.99
1100.16
1099.86
1098.96
1097.92
1098.26
1099.66
1100.74
1101.13
1101.16
1100.97
1100.66
1099.81
1098.64
1100.34
1101.9
1102.18
1102.27
1102.29
1102.29
1102.33
1102.36
1102.36
1102.33
1102.23
1102.11
1102.13
1102.27
1102.36
1102.42
1102.49
1102.51
1102.45
1102.32
1102.16
1101.85
1101.81
1102.49
1101.95
1101.41
1101.52
1102
1102.48
1102.86
1102.95
1102.81
1102.8
1102.79
1102.69
1102.65
1102.65
1102.66
1102.55
1102.42
1102.39
1102.25
1101.91
1101.82
1101.99
1102.11
1102.11
1101.97
1101.69
1101.43
1101.42
1101.59
1101.52
1100.94
1099.85
1099.76
1100.59
1101.38
1101.72
1101.72
1101.29
1100.41
1099.81
1100.58
1102.16
1103.35
1103.37
1103.46
1103.47
1103.66
1103.81
1103.25
1103.03
1103.14
1103.67
1104.66
1105.26
1104.99
1103.62
1102.82
1102.76
1103.05
1101.85
1100.4
1102.51
1102.52
1102.49
1102.47
1102.46
1102.45
1102.56
1102.52
1102.45
1102.44
1102.38
1102.27
1102.1
1102.06
1102.15
1102.26
1102.33
1102.37
1102.4
1102.42
1102.42
1102.38
1102.33
1102.35
1102.43
1102.45
1102.51
1102.6
1102.67
1102.66
1102.59
1102.51
1102.5
1102.49
1102.5
1102.48
1102.47
1102.48
1102.51
1102.61
1102.73
1102.61
1102.56
1108.42
1106.93
1102.63
1095.33
1090.27
1093.56
1108.29
1112.08
1110.68
1109.36
1107.76
1105.36
1103.54
1104.37
1107.25
1109.06
1108.96
1107.4
1103.66
1100.61
1100.62
1101.27
1097.58
1088.96
1087.38
1100.29
1110.21
1109.75
1108.33
1106.37
1102.12
1096.73
1096.61
1101.83
1106.13
1107.67
1107.82
1106.84
1105.79
1105.43
1105.23
1105.17
1105.54
1106.48
1107.37
1107.95
1108.17
1108.15
1108.12
1108.53
1109.05
1109.14
1108.24
1105.46
1102.69
1102.79
1103.79
1104.76
1105.03
1105.48
1106.14
1106.83
1106.86
1106.51
1106.71
1107.48
1108.12
1108.5
1108.56
1108.41
1107.99
1105.99
1102.08
1105.71
1108.73
1109.34
1109.61
1109.71
1109.75
1109.79
1109.82
1109.82
1109.76
1109.64
1109.68
1109.51
1109.65
1109.85
1110
1110.05
1110
1109.88
1109.81
1109.71
1109.56
1109.79
1110.62
1109.76
1109.31
1109.61
1110.66
1111.62
1111.54
1110.94
1109.87
1109.13
1109.13
1109.21
1109.31
1109.49
1109.77
1109.92
1109.93
1109.9
1109.84
1109.7
1109.52
1109.46
1109.61
1109.65
1109.59
1109.32
1108.89
1108.63
1108.33
1108
1107.53
1107.48
1107.97
1108.78
1109.29
1109.51
1109.6
1109.56
1109.32
1108.85
1108.49
1108.65
1109.28
1109.71
1109.74
1109.71
1111.31
1112.11
1111.84
1112.31
1112.63
1112.63
1113.01
1112.35
1111.17
1110.32
1110.02
1110
1110.07
1110
1109.83
1110.02
1110.01
1109.96
1109.95
1109.93
1110.07
1110.39
1110.36
1109.97
1109.79
1109.65
1109.48
1109.28
1109.25
1109.42
1109.64
1109.76
1109.82
1109.85
1109.87
1109.88
1109.89
1109.87
1109.9
1109.92
1109.9
1110.07
1110.17
1110.14
1110.08
1110.03
1110.01
1110
1109.98
1109.96
1109.95
1109.96
1109.96
1110.02
1110.13
1110.14
1110.13
1110.03
1113.57
1112.58
1110.54
1109.78
1110.4
1115.4
1119.24
1117.83
1116.44
1115.01
1112.65
1109.91
1109.19
1111.73
1114.72
1116.07
1115.49
1112.51
1107.52
1104.23
1104.25
1112.36
1117.13
1109.48
1108.07
1116.3
1117.22
1117.16
1116.51
1113.73
1104.66
1098.55
1098.03
1104.18
1110.3
1111.87
1110.5
1109.41
1109.37
1109.93
1111.49
1112.95
1114.04
1114.97
1115.41
1115.51
1114.83
1113.43
1113.54
1114.94
1116
1116.5
1116.51
1115.92
1114.66
1113.72
1113.25
1112.33
1111.29
1111.6
1112.67
1113.88
1114.37
1114.37
1114.43
1115.05
1115.82
1115.94
1115.49
1114.71
1113.94
1109.64
1103.56
1107.98
1113.9
1114.05
1114.8
1115.97
1116.71
1117.05
1117.18
1117.01
1116.54
1116.75
1118.25
1116.94
1116.61
1116.97
1117.14
1117.27
1117.23
1117.23
1117.26
1117.3
1117.5
1118.48
1119.1
1118.42
1117.84
1118.06
1118.53
1119.18
1118.66
1117.46
1116.52
1115.98
1115.69
1115.53
1115.71
1116.13
1116.57
1117.22
1117.38
1117.4
1117.4
1117.36
1117.19
1117.1
1116.98
1116.91
1116.75
1116.6
1116.3
1115.52
1114.29
1114.29
1115.11
1115.77
1116.22
1116.52
1116.74
1116.97
1117.11
1117.17
1117.14
1116.95
1116.52
1116.02
1115.9
1116.4
1116.01
1115.79
1120.14
1121.28
1119.94
1121.37
1121.98
1122.13
1122.95
1120.45
1118.11
1117.57
1117.45
1117.44
1117.49
1117.54
1117.68
1117.98
1117.95
1117.77
1117.59
1117.69
1117.95
1118.52
1118.04
1117.1
1116.86
1116.87
1116.85
1116.76
1116.66
1116.77
1117
1117.17
1117.26
1117.31
1117.33
1117.35
1117.35
1117.35
1117.37
1117.38
1117.42
1117.49
1117.52
1117.53
1117.52
1117.51
1117.47
1117.42
1117.4
1117.4
1117.4
1117.4
1117.42
1117.44
1117.47
1117.65
1117.54
1117.56
1109.59
1117.13
1124.97
1129.11
1130.89
1129.47
1126.76
1124.67
1123.39
1122.02
1119.34
1116.88
1118.53
1122.18
1123.78
1123.59
1122
1118.26
1113.74
1111.98
1116.81
1124.24
1125.79
1124.85
1124.48
1124.69
1124.63
1124.45
1123.95
1121.32
1112.26
1104.77
1105.15
1110.53
1117.61
1117.65
1116.93
1118.11
1119.66
1120.93
1121.67
1121.67
1121.7
1121.59
1121.86
1122.1
1122.27
1122.29
1122.67
1123.13
1123.6
1123.91
1123.92
1123.6
1123.03
1122.56
1122.08
1121.16
1120.22
1120.31
1120.67
1121.17
1121.46
1121.27
1121.4
1122.71
1123.77
1124.01
1123.91
1123.63
1122.1
1113.29
1106.85
1111.16
1121.49
1121.84
1120.59
1119.66
1120.39
1122.44
1123.67
1123.77
1123.15
1124.45
1127.58
1124.88
1123.89
1124.13
1124.14
1124.21
1124.37
1124.54
1124.64
1124.74
1125.16
1126.61
1126.79
1125.74
1125.16
1125.15
1125.27
1125.14
1124.91
1124.72
1124.5
1124.17
1123.62
1122.89
1123.11
1123.52
1122.93
1124.32
1124.79
1124.85
1124.86
1124.88
1124.94
1124.85
1124.52
1124.08
1123.79
1123.59
1123.3
1122.21
1120.6
1121.39
1123.15
1123.59
1123.69
1123.71
1124.01
1124.36
1124.6
1124.69
1124.7
1124.61
1124.41
1124.15
1123.91
1124.03
1122.89
1120.58
1127.25
1130.06
1126.83
1127.31
1128.3
1131.53
1136.21
1133.22
1125.69
1124.85
1124.84
1124.88
1124.91
1125
1125.09
1125.14
1125.04
1124.99
1124.98
1125.05
1125.17
1125.65
1125.03
1124.27
1124.24
1124.33
1124.35
1124.31
1124.25
1124.36
1124.56
1124.68
1124.74
1124.77
1124.78
1124.79
1124.79
1124.79
1124.8
1124.81
1124.82
1124.84
1124.89
1124.94
1124.92
1124.87
1124.83
1124.84
1124.84
1124.84
1124.84
1124.84
1124.84
1124.86
1124.94
1124.98
1125.25
1124.96
1101.26
1107.69
1120.11
1133.7
1139.58
1136.82
1133.38
1131.66
1130.61
1129.35
1126.82
1125.75
1128.74
1131.44
1131.85
1131.72
1130.69
1126.62
1119.45
1120.72
1130.93
1134.8
1133.69
1132.74
1132.3
1132.13
1132.04
1131.83
1131.23
1129.29
1123.24
1116.49
1117.66
1122.24
1125.78
1125.94
1126.8
1128.79
1130.52
1131.19
1131.17
1130.55
1129.1
1127.48
1127.44
1129.16
1130.73
1131.4
1131.57
1131.43
1131.22
1130.92
1130.36
1129.87
1129.85
1129.99
1130.11
1130.06
1129.96
1129.91
1129.57
1129.03
1127.94
1126.25
1126.96
1130
1131.82
1132.21
1132.2
1132.18
1132.05
1126.6
1115.4
1124.49
1131.8
1131.32
1129.2
1126.75
1126.51
1127.65
1129.39
1129.82
1129.28
1130.63
1133.84
1132.06
1131.12
1131.12
1131.07
1131.28
1131.67
1131.96
1132.11
1132.24
1133
1135.25
1134.61
1132.96
1132.35
1132.25
1132.23
1132.23
1132.24
1132.28
1132.28
1132.2
1131.91
1131.12
1130.97
1131.62
1127.7
1129.89
1131.8
1132.07
1132.15
1132.23
1132.23
1132.34
1132.34
1132.18
1132
1131.69
1130.91
1129.24
1127.38
1128.9
1130.48
1130.91
1130.79
1130.33
1130.53
1132.07
1132.26
1132.25
1132.2
1132.13
1132.06
1132
1131.92
1131.69
1129.98
1125.29
1130.14
1135.85
1133.38
1133.15
1133.65
1137.27
1143.68
1143.32
1136.29
1132.04
1132.37
1132.44
1132.54
1132.51
1132.31
1132.16
1132.2
1132.26
1132.3
1132.34
1132.53
1132.74
1132.19
1131.76
1131.87
1131.96
1131.96
1131.85
1131.72
1131.81
1132.02
1132.15
1132.19
1132.21
1132.2
1132.2
1132.2
1132.21
1132.23
1132.24
1132.25
1132.26
1132.3
1132.37
1132.35
1132.29
1132.27
1132.26
1132.27
1132.27
1132.27
1132.27
1132.29
1132.33
1132.45
1132.54
1132.43
1132.52
1104.01
1104.66
1109.93
1126
1141.32
1140.7
1139.31
1138.37
1137.68
1135.87
1133.31
1130.9
1136.37
1138.78
1139.43
1139.41
1138.91
1134.8
1124.2
1127.37
1140.72
1144.57
1142.81
1140.8
1139.78
1139.41
1139.25
1138.97
1138.33
1136.7
1133.3
1129.72
1130.91
1133.88
1135.62
1135.67
1135.87
1137.13
1138.33
1138.95
1138.95
1138.57
1136.8
1134.19
1134.1
1136.7
1138.45
1139.11
1139.23
1139.13
1138.63
1137.62
1136.83
1137.03
1137.54
1137.84
1137.87
1137.89
1138.01
1138.04
1137.79
1136.98
1134.39
1130.57
1131.75
1136.83
1139.19
1139.57
1139.63
1139.61
1139.46
1137.55
1130.61
1136.48
1139.11
1139.13
1138.43
1136.67
1135.76
1136.48
1137.26
1137.01
1135.77
1136.53
1139.24
1138.56
1138.09
1138.22
1138.32
1138.67
1139.41
1139.87
1139.99
1139.9
1140.76
1143.08
1141.97
1139.96
1139.43
1139.41
1139.41
1139.47
1139.56
1139.65
1139.72
1139.8
1139.78
1139.45
1139.57
1137.94
1131.24
1134.15
1137.86
1138.84
1138.97
1138.87
1138.92
1139.14
1139.43
1139.54