/*--------------------------------*- C++ -*----------------------------------*\
  =========                 |
  \\      /  F ield         | OpenFOAM: The Open Source CFD Toolbox
   \\    /   O peration     | Website:  https://openfoam.org
    \\  /    A nd           | Version:  8
     \\/     M anipulation  |
\*---------------------------------------------------------------------------*/
FoamFile
{
    version     2.0;
    format      ascii;
    class       volVectorField;
    location    "700";
    object      U;
}
// * * * * * * * * * * * * * * * * * * * * * * * * * * * * * * * * * * * * * //

dimensions      [0 1 -1 0 0 0 0];

internalField   nonuniform List<vector> 
20000
(
(2.50225e-06 0 -1.65359e-06)
(5.71907e-06 0 -2.29329e-07)
(5.48553e-06 0 1.16986e-06)
(3.3719e-06 0 1.0598e-06)
(1.6833e-06 0 2.89986e-07)
(8.32066e-07 0 4.09156e-08)
(2.22174e-07 0 1.11473e-07)
(-3.926e-07 0 2.19938e-07)
(-1.09098e-06 0 3.2203e-07)
(-1.76068e-06 0 3.43107e-07)
(-1.89345e-06 0 2.43086e-08)
(4.96177e-07 0 -1.78328e-06)
(1.1188e-05 0 -7.98796e-06)
(1.12111e-05 0 9.10019e-06)
(-4.2459e-05 0 4.59102e-05)
(-0.000120509 0 3.38077e-05)
(-5.61624e-05 0 -9.67426e-05)
(9.85016e-05 0 -5.9289e-05)
(8.89872e-05 0 6.26001e-05)
(-1.21243e-05 0 3.07264e-05)
(-5.204e-05 0 3.83176e-06)
(-5.91821e-05 0 3.8081e-07)
(-6.13435e-05 0 3.04628e-07)
(-6.33793e-05 0 8.29169e-07)
(-6.64115e-05 0 1.42741e-06)
(-7.04877e-05 0 1.43067e-06)
(-7.4618e-05 0 3.56674e-07)
(-7.78096e-05 0 -1.55844e-06)
(-7.99673e-05 0 -2.31479e-06)
(-7.99009e-05 0 -3.70189e-06)
(-7.63736e-05 0 -4.09092e-06)
(-6.92354e-05 0 -5.33132e-06)
(-5.92091e-05 0 -5.91142e-06)
(-4.90562e-05 0 -4.87393e-06)
(-4.18492e-05 0 -2.65872e-06)
(-3.86149e-05 0 -6.59634e-07)
(-3.8036e-05 0 1.65133e-07)
(-3.76184e-05 0 -4.03039e-07)
(-3.50905e-05 0 -1.92907e-06)
(-2.97849e-05 0 -3.22731e-06)
(-2.38907e-05 0 -2.70292e-06)
(-2.12425e-05 0 -3.01383e-07)
(-2.43116e-05 0 2.67432e-06)
(-3.37626e-05 0 5.62506e-06)
(-4.89016e-05 0 8.09528e-06)
(-6.8095e-05 0 9.28785e-06)
(-8.80897e-05 0 8.747e-06)
(-0.00010536 0 6.1814e-06)
(-0.00011648 0 2.71984e-06)
(-0.000119178 0 -1.23722e-06)
(-0.00011335 0 -5.28453e-06)
(-0.000100745 0 -7.78997e-06)
(-8.64897e-05 0 -7.32797e-06)
(-7.47775e-05 0 -5.66961e-06)
(-6.44866e-05 0 -6.23208e-06)
(-4.80907e-05 0 -1.19486e-05)
(-4.41272e-05 0 7.24616e-06)
(-5.41141e-05 0 3.53682e-06)
(-5.01204e-05 0 -6.51622e-06)
(-4.0933e-05 0 -2.20766e-06)
(-3.85169e-05 0 -3.48533e-08)
(-3.95625e-05 0 1.1609e-06)
(-4.37512e-05 0 3.02958e-06)
(-5.16007e-05 0 4.3996e-06)
(-6.04065e-05 0 1.91153e-06)
(-6.28327e-05 0 -4.60988e-06)
(-5.74786e-05 0 -5.82702e-06)
(-4.91861e-05 0 -5.85341e-06)
(-3.67408e-05 0 -8.64547e-06)
(-2.58862e-05 0 -3.5464e-06)
(-2.34004e-05 0 9.67862e-08)
(-2.59117e-05 0 1.8008e-06)
(-3.26661e-05 0 4.54484e-06)
(-4.23161e-05 0 4.91506e-06)
(-5.03601e-05 0 3.08023e-06)
(-5.49083e-05 0 1.48475e-06)
(-5.69235e-05 0 5.97421e-07)
(-5.74673e-05 0 6.56543e-08)
(-5.73362e-05 0 -2.28301e-08)
(-5.92616e-05 0 2.16584e-06)
(-8.33491e-05 0 2.17384e-05)
(9.20748e-05 0 -0.000198351)
(-8.45389e-05 0 0.000371772)
(-0.0002372 0 -0.000223495)
(-5.32612e-05 0 3.56348e-05)
(-9.60694e-05 0 4.35971e-06)
(-9.57532e-05 0 -6.38551e-06)
(-8.38997e-05 0 -6.67609e-06)
(-7.36228e-05 0 -4.49196e-06)
(-6.67997e-05 0 -3.18288e-06)
(-6.00322e-05 0 -4.44071e-06)
(-4.76997e-05 0 -8.60367e-06)
(-2.95694e-05 0 -9.94611e-06)
(-1.50534e-05 0 -4.73352e-06)
(-9.18633e-06 0 -1.18208e-06)
(-8.20358e-06 0 1.609e-07)
(-9.86053e-06 0 1.45484e-06)
(-1.44333e-05 0 3.03268e-06)
(-1.95277e-05 0 1.84451e-06)
(-2.2477e-05 0 7.56632e-07)
(-2.393e-05 0 3.8998e-07)
(-2.43913e-05 0 -9.44391e-08)
(-2.53208e-05 0 9.51277e-07)
(-2.92307e-05 0 2.91866e-06)
(-3.8103e-05 0 5.91585e-06)
(-5.23593e-05 0 8.28836e-06)
(-6.70905e-05 0 6.36519e-06)
(-7.52965e-05 0 1.74292e-06)
(-7.3249e-05 0 -3.89141e-06)
(-5.82386e-05 0 -1.12005e-05)
(-3.42199e-05 0 -1.28789e-05)
(-1.44633e-05 0 -6.91803e-06)
(-5.49269e-06 0 -2.0788e-06)
(-3.23788e-06 0 -2.0232e-07)
(-3.64454e-06 0 5.74923e-07)
(-5.25417e-06 0 9.85093e-07)
(-7.16447e-06 0 8.78619e-07)
(-8.35956e-06 0 3.03958e-07)
(-8.38939e-06 0 -2.52185e-07)
(-7.66178e-06 0 -4.46936e-07)
(-6.74096e-06 0 -4.5482e-07)
(-5.82371e-06 0 -4.52527e-07)
(-4.93274e-06 0 -4.34684e-07)
(-4.19829e-06 0 -3.01448e-07)
(-3.88595e-06 0 -1.72287e-08)
(-4.08645e-06 0 2.08982e-07)
(-4.5396e-06 0 2.37408e-07)
(-4.90513e-06 0 1.24522e-07)
(-5.00573e-06 0 -2.553e-08)
(-4.77654e-06 0 -2.04326e-07)
(-4.12902e-06 0 -4.43613e-07)
(-3.10386e-06 0 -5.82998e-07)
(-2.15623e-06 0 -3.6836e-07)
(-1.9393e-06 0 1.45277e-07)
(-3.37466e-06 0 1.28133e-06)
(-9.28496e-06 0 4.6083e-06)
(-2.22634e-05 0 8.33406e-06)
(-3.51842e-05 0 4.55436e-06)
(-3.94715e-05 0 -2.77846e-07)
(-3.69696e-05 0 -2.22323e-06)
(-3.29368e-05 0 -1.81492e-06)
(-3.03105e-05 0 -8.23769e-07)
(-2.91817e-05 0 -3.21251e-07)
(-2.8331e-05 0 -5.50276e-07)
(-2.62975e-05 0 -1.49821e-06)
(-2.19681e-05 0 -2.83614e-06)
(-1.58273e-05 0 -3.28861e-06)
(-1.01031e-05 0 -2.40749e-06)
(-6.24593e-06 0 -1.43398e-06)
(-4.26773e-06 0 -5.38461e-07)
(-3.77713e-06 0 4.81724e-08)
(-4.57146e-06 0 7.45678e-07)
(-7.97209e-06 0 2.65503e-06)
(-1.75949e-05 0 6.97779e-06)
(-3.42446e-05 0 9.71143e-06)
(-4.58087e-05 0 1.95877e-06)
(-4.32512e-05 0 -4.34323e-06)
(-3.37003e-05 0 -4.97324e-06)
(-2.62761e-05 0 -2.22561e-06)
(-2.24188e-05 0 -1.46054e-06)
(-1.7406e-05 0 -3.45911e-06)
(-1.05505e-05 0 -3.35675e-06)
(-5.38566e-06 0 -1.78206e-06)
(-3.01229e-06 0 -5.8628e-07)
(-2.21007e-06 0 -2.11601e-07)
(-1.97669e-06 0 -2.16676e-08)
(-1.99418e-06 0 4.39351e-08)
(-2.14473e-06 0 1.13119e-07)
(-2.46018e-06 0 2.13552e-07)
(-3.02297e-06 0 3.65117e-07)
(-3.7988e-06 0 4.26645e-07)
(-4.46812e-06 0 2.43008e-07)
(-4.74163e-06 0 1.69609e-08)
(-4.72977e-06 0 -4.55591e-08)
(-4.70034e-06 0 6.18045e-09)
(-4.81841e-06 0 1.21215e-07)
(-5.30107e-06 0 4.13113e-07)
(-8.73347e-06 0 3.12728e-06)
(-1.26702e-05 0 9.32149e-07)
(-1.01466e-05 0 -3.36147e-06)
(-4.39415e-06 0 -2.32336e-06)
(-7.83577e-07 0 -1.23487e-06)
(-1.64758e-06 0 2.1551e-06)
(-1.18603e-05 0 8.15243e-06)
(-5.48534e-05 0 3.50354e-05)
(-2.95102e-05 0 -6.0013e-05)
(1.18977e-05 0 1.90519e-05)
(-8.02594e-06 0 1.19476e-06)
(-8.66267e-06 0 -4.12861e-07)
(-7.56004e-06 0 -6.41935e-07)
(-6.02386e-06 0 -8.76269e-07)
(-4.21463e-06 0 -9.23639e-07)
(-2.68841e-06 0 -5.95801e-07)
(-1.84964e-06 0 -2.36945e-07)
(-1.65433e-06 0 4.80308e-08)
(-2.00773e-06 0 3.15355e-07)
(-2.62425e-06 0 3.14604e-07)
(-2.78861e-06 0 -1.29551e-07)
(-2.08681e-06 0 -5.45453e-07)
(-7.64146e-07 0 -7.61317e-07)
(9.06371e-07 0 -3.79549e-06)
(2.60867e-06 0 -8.12882e-07)
(4.27267e-06 0 1.91666e-06)
(5.02761e-06 0 2.25562e-06)
(4.71757e-06 0 3.83007e-07)
(3.61834e-06 0 2.55381e-07)
(1.70195e-06 0 7.21843e-07)
(-1.99692e-07 0 1.05513e-06)
(-1.63736e-06 0 1.14384e-06)
(-2.53572e-06 0 1.09836e-06)
(-3.18533e-06 0 5.48384e-07)
(-2.25551e-06 0 -4.38153e-06)
(2.72465e-05 0 -4.35444e-05)
(4.65984e-05 0 2.7836e-05)
(-5.52998e-05 0 0.000185056)
(-0.000148779 0 6.75204e-05)
(-6.96049e-05 0 -0.000275502)
(1.17161e-06 0 -0.000112804)
(-1.16292e-05 0 0.000125898)
(-1.71957e-05 0 6.07347e-05)
(-2.05801e-05 0 8.10975e-06)
(-2.2863e-05 0 8.38689e-07)
(-2.39109e-05 0 8.54829e-07)
(-2.46904e-05 0 1.82347e-06)
(-2.49878e-05 0 2.7221e-06)
(-2.51395e-05 0 2.7712e-06)
(-2.63212e-05 0 1.31677e-06)
(-2.97575e-05 0 -1.52885e-06)
(-3.42005e-05 0 -3.61564e-06)
(-3.76394e-05 0 -6.89714e-06)
(-3.86328e-05 0 -9.19791e-06)
(-3.77412e-05 0 -1.16296e-05)
(-3.74254e-05 0 -1.20031e-05)
(-3.8049e-05 0 -9.56271e-06)
(-3.82154e-05 0 -5.67627e-06)
(-3.66329e-05 0 -2.61031e-06)
(-3.33464e-05 0 -1.57864e-06)
(-2.95759e-05 0 -2.52973e-06)
(-2.67975e-05 0 -4.81024e-06)
(-2.50642e-05 0 -7.25677e-06)
(-2.26615e-05 0 -7.20273e-06)
(-1.95034e-05 0 -2.55144e-06)
(-1.76243e-05 0 4.55147e-06)
(-1.76606e-05 0 1.13073e-05)
(-1.86016e-05 0 1.66034e-05)
(-1.95899e-05 0 1.90037e-05)
(-1.97987e-05 0 1.72107e-05)
(-1.86148e-05 0 1.13227e-05)
(-1.74327e-05 0 5.04106e-06)
(-1.90503e-05 0 -7.75555e-07)
(-2.5375e-05 0 -6.39217e-06)
(-3.63068e-05 0 -9.54044e-06)
(-5.06198e-05 0 -7.41382e-06)
(-6.64198e-05 0 -4.12402e-06)
(-7.95714e-05 0 -8.06643e-06)
(-8.46624e-05 0 -2.43028e-05)
(-7.12385e-05 0 1.2658e-06)
(-4.69246e-05 0 -3.57815e-06)
(-3.07917e-05 0 -1.80527e-05)
(-2.42375e-05 0 -5.72574e-06)
(-2.29895e-05 0 1.30847e-07)
(-2.36627e-05 0 2.89062e-06)
(-2.41199e-05 0 6.01589e-06)
(-2.31936e-05 0 7.89345e-06)
(-2.38474e-05 0 5.08848e-06)
(-3.25796e-05 0 -2.41274e-06)
(-4.69844e-05 0 -5.00538e-06)
(-5.85142e-05 0 -7.94417e-06)
(-6.32914e-05 0 -1.78566e-05)
(-5.92385e-05 0 -1.28046e-05)
(-5.13011e-05 0 -4.6078e-06)
(-4.00952e-05 0 -4.87052e-06)
(-2.6946e-05 0 3.31728e-06)
(-1.80315e-05 0 6.12205e-06)
(-1.26503e-05 0 4.21928e-06)
(-1.01567e-05 0 2.31289e-06)
(-9.71346e-06 0 1.38896e-06)
(-1.08932e-05 0 1.14288e-06)
(-1.36766e-05 0 1.79182e-06)
(-1.63908e-05 0 5.31682e-06)
(1.3388e-07 0 2.59656e-05)
(-0.000132484 0 -0.00024693)
(-2.75745e-05 0 0.000487999)
(5.45463e-05 0 -0.000274563)
(-8.36284e-05 0 3.62567e-05)
(-4.09176e-05 0 4.91551e-07)
(-3.15887e-05 0 -1.42203e-05)
(-2.82662e-05 0 -1.54997e-05)
(-2.45158e-05 0 -1.08518e-05)
(-2.2695e-05 0 -6.59677e-06)
(-2.51883e-05 0 -6.41266e-06)
(-3.40565e-05 0 -1.10413e-05)
(-4.58946e-05 0 -1.43806e-05)
(-5.00596e-05 0 -1.0949e-05)
(-4.45706e-05 0 -6.53271e-06)
(-3.78218e-05 0 -2.41499e-06)
(-3.43829e-05 0 2.02519e-06)
(-3.43692e-05 0 6.67057e-06)
(-3.62171e-05 0 4.51153e-06)
(-3.83451e-05 0 2.30833e-06)
(-3.95023e-05 0 7.27677e-07)
(-3.97456e-05 0 -1.32741e-07)
(-4.16918e-05 0 3.66235e-06)
(-4.65062e-05 0 8.80532e-06)
(-4.91114e-05 0 1.14069e-05)
(-4.28416e-05 0 1.069e-05)
(-3.12581e-05 0 7.00786e-06)
(-2.36859e-05 0 1.61715e-06)
(-2.44001e-05 0 -5.21956e-06)
(-3.27488e-05 0 -1.66456e-05)
(-3.76328e-05 0 -2.66786e-05)
(-2.55899e-05 0 -2.50295e-05)
(-9.41629e-06 0 -9.22032e-06)
(-4.77537e-06 0 -5.82734e-08)
(-6.06751e-06 0 2.03253e-06)
(-7.16964e-06 0 2.14406e-06)
(-6.79081e-06 0 1.17743e-06)
(-5.36746e-06 0 -2.40683e-07)
(-4.0284e-06 0 -9.862e-07)
(-3.45166e-06 0 -9.80592e-07)
(-3.44417e-06 0 -8.22877e-07)
(-3.62463e-06 0 -8.07824e-07)
(-3.73226e-06 0 -8.58051e-07)
(-3.71025e-06 0 -6.38691e-07)
(-3.74528e-06 0 3.31128e-08)
(-3.82312e-06 0 4.26935e-07)
(-3.78699e-06 0 4.29932e-07)
(-3.77603e-06 0 2.83936e-07)
(-4.00099e-06 0 1.39056e-07)
(-4.58301e-06 0 -1.7464e-08)
(-5.62033e-06 0 -2.43499e-07)
(-7.068e-06 0 -3.68845e-07)
(-8.82814e-06 0 2.07554e-07)
(-1.21886e-05 0 2.66491e-06)
(-1.91448e-05 0 7.08311e-06)
(-2.57691e-05 0 1.12647e-05)
(-2.39937e-05 0 1.28153e-05)
(-1.68603e-05 0 5.81844e-06)
(-1.30668e-05 0 -1.06433e-06)
(-1.39352e-05 0 -3.07587e-06)
(-1.79288e-05 0 -1.01568e-06)
(-2.37012e-05 0 1.49931e-06)
(-2.99344e-05 0 2.42794e-06)
(-3.6135e-05 0 2.00972e-06)
(-4.23005e-05 0 3.28051e-08)
(-4.54476e-05 0 -5.56152e-06)
(-4.0157e-05 0 -1.19557e-05)
(-2.85417e-05 0 -1.10227e-05)
(-1.85199e-05 0 -6.6636e-06)
(-1.34651e-05 0 -2.32925e-06)
(-1.27196e-05 0 6.07162e-07)
(-1.53689e-05 0 3.63432e-06)
(-2.07098e-05 0 8.51948e-06)
(-2.56579e-05 0 1.57205e-05)
(-2.52646e-05 0 1.73048e-05)
(-1.85706e-05 0 -6.12501e-07)
(-1.15836e-05 0 -1.11001e-05)
(-8.95517e-06 0 -1.0124e-05)
(-8.27363e-06 0 -4.9168e-06)
(-7.34732e-06 0 -3.34236e-06)
(-7.83981e-06 0 -5.94612e-06)
(-9.18537e-06 0 -6.27553e-06)
(-8.8535e-06 0 -4.26599e-06)
(-7.26678e-06 0 -2.00768e-06)
(-5.62789e-06 0 -1.20415e-06)
(-4.29666e-06 0 -5.77629e-07)
(-3.51256e-06 0 -1.56269e-07)
(-3.21606e-06 0 1.80822e-07)
(-3.28448e-06 0 5.47723e-07)
(-3.69857e-06 0 1.03171e-06)
(-4.46903e-06 0 1.32201e-06)
(-5.44366e-06 0 9.82232e-07)
(-6.27742e-06 0 3.5498e-07)
(-6.733e-06 0 2.79016e-08)
(-6.85981e-06 0 1.57405e-08)
(-6.85975e-06 0 2.56917e-07)
(-7.50224e-06 0 1.50926e-06)
(-9.89028e-06 0 8.05714e-06)
(-1.34844e-05 0 3.7824e-06)
(-1.47369e-05 0 -7.25575e-06)
(-1.09863e-05 0 -7.7376e-06)
(-5.33922e-06 0 -4.89889e-06)
(-9.69091e-06 0 1.12151e-05)
(-1.81737e-05 0 1.79958e-05)
(1.20909e-05 0 3.82205e-05)
(-5.61555e-07 0 -7.54306e-05)
(-2.52991e-05 0 1.83104e-05)
(-3.586e-06 0 5.02811e-07)
(-1.67475e-06 0 -8.35313e-07)
(-1.99857e-06 0 -9.42396e-07)
(-2.94148e-06 0 -1.14452e-06)
(-4.21205e-06 0 -1.17681e-06)
(-5.25669e-06 0 -8.06319e-07)
(-5.68828e-06 0 -4.13142e-07)
(-5.49172e-06 0 -1.45038e-07)
(-4.6325e-06 0 2.70121e-08)
(-3.21285e-06 0 -1.75202e-07)
(-1.804e-06 0 -8.5575e-07)
(-8.59197e-07 0 -1.43335e-06)
(-2.56736e-07 0 -1.77808e-06)
(8.43108e-07 0 -4.71101e-06)
(2.62865e-06 0 -1.30958e-06)
(5.00498e-06 0 7.19228e-07)
(1.02524e-05 0 -6.94935e-07)
(1.69691e-05 0 -3.49968e-06)
(1.90891e-05 0 2.89577e-07)
(1.26073e-05 0 5.94261e-06)
(3.14051e-06 0 5.19264e-06)
(-2.14639e-06 0 3.12645e-06)
(-4.81901e-06 0 2.75452e-06)
(-8.74223e-06 0 4.06342e-06)
(-1.36054e-05 0 -2.52073e-06)
(0.0001259 0 -0.000211652)
(0.00023312 0 7.11612e-05)
(-3.48446e-06 0 0.000477358)
(-0.000124108 0 -1.77845e-05)
(-4.26921e-05 0 -0.000360379)
(-6.02514e-05 0 -9.28451e-05)
(-5.07396e-05 0 9.65341e-05)
(-1.74185e-05 0 5.19931e-05)
(-1.12586e-05 0 8.07819e-06)
(-1.06533e-05 0 -2.63254e-07)
(-8.77349e-06 0 7.31e-09)
(-6.97345e-06 0 1.15522e-06)
(-5.63872e-06 0 2.02604e-06)
(-4.86311e-06 0 2.38238e-06)
(-4.56558e-06 0 1.76896e-06)
(-4.57785e-06 0 -3.99034e-10)
(-5.12022e-06 0 -2.25688e-06)
(-6.97799e-06 0 -5.15819e-06)
(-1.02002e-05 0 -8.56091e-06)
(-1.36685e-05 0 -1.11831e-05)
(-1.68859e-05 0 -1.08498e-05)
(-1.98873e-05 0 -8.13882e-06)
(-2.16385e-05 0 -5.80521e-06)
(-2.07732e-05 0 -5.11889e-06)
(-1.74164e-05 0 -5.64714e-06)
(-1.32792e-05 0 -6.24006e-06)
(-1.01072e-05 0 -6.99003e-06)
(-8.30479e-06 0 -8.76105e-06)
(-7.36912e-06 0 -9.67843e-06)
(-7.53904e-06 0 -4.61502e-06)
(-1.01666e-05 0 5.11047e-06)
(-1.54296e-05 0 1.4222e-05)
(-2.0312e-05 0 1.88585e-05)
(-2.06151e-05 0 1.81419e-05)
(-1.57979e-05 0 1.36239e-05)
(-1.0029e-05 0 7.8297e-06)
(-6.70743e-06 0 3.64837e-06)
(-6.00993e-06 0 1.00211e-06)
(-7.8367e-06 0 -7.96085e-07)
(-1.33917e-05 0 8.52087e-08)
(-2.31479e-05 0 5.24957e-06)
(-3.40665e-05 0 7.85099e-06)
(-4.26998e-05 0 -2.69903e-07)
(-5.08987e-05 0 -2.02258e-05)
(-4.96651e-05 0 -1.78387e-05)
(-3.81796e-05 0 -2.00054e-05)
(-2.80789e-05 0 -2.75468e-05)
(-2.04872e-05 0 -1.00487e-05)
(-1.57098e-05 0 -1.31544e-06)
(-1.24537e-05 0 1.95799e-06)
(-9.12297e-06 0 4.21809e-06)
(-5.91525e-06 0 5.58033e-06)
(-4.11989e-06 0 5.96881e-06)
(-4.39216e-06 0 5.00968e-06)
(-6.57271e-06 0 3.127e-06)
(-1.15117e-05 0 -8.70353e-07)
(-2.31552e-05 0 -1.05581e-05)
(-4.02598e-05 0 -1.05688e-05)
(-5.38123e-05 0 -6.00241e-06)
(-5.34352e-05 0 -1.93902e-05)
(-3.77602e-05 0 -1.37728e-05)
(-2.03079e-05 0 -4.72943e-06)
(-1.06057e-05 0 -7.0065e-07)
(-6.72665e-06 0 5.92069e-07)
(-5.45631e-06 0 1.31253e-06)
(-5.41232e-06 0 2.36354e-06)
(-6.15593e-06 0 4.18256e-06)
(-7.34648e-06 0 6.99167e-06)
(-8.26329e-06 0 8.73035e-06)
(-4.75001e-05 0 -5.82522e-05)
(-1.65982e-05 0 0.000162445)
(1.64304e-05 0 -6.5423e-05)
(-1.8993e-05 0 -2.24154e-07)
(-1.87775e-05 0 -6.56621e-06)
(-2.29541e-05 0 -1.27268e-05)
(-2.83409e-05 0 -1.53564e-05)
(-3.07295e-05 0 -1.29116e-05)
(-2.97287e-05 0 -8.01021e-06)
(-2.90248e-05 0 -3.83645e-06)
(-3.18348e-05 0 -2.44275e-06)
(-3.91222e-05 0 -4.19404e-06)
(-4.91325e-05 0 -7.23328e-06)
(-5.71576e-05 0 -8.02712e-06)
(-5.89731e-05 0 -6.20661e-06)
(-5.49894e-05 0 -2.04277e-06)
(-4.82072e-05 0 3.32335e-06)
(-4.17625e-05 0 2.37559e-06)
(-3.75349e-05 0 1.36898e-06)
(-3.49121e-05 0 -5.541e-07)
(-3.27892e-05 0 -1.1917e-06)
(-2.9386e-05 0 2.99018e-06)
(-2.24289e-05 0 7.1692e-06)
(-1.30896e-05 0 6.21361e-06)
(-6.08741e-06 0 2.55922e-06)
(-3.18128e-06 0 6.19674e-07)
(-2.52278e-06 0 -2.46375e-07)
(-3.53476e-06 0 -1.65209e-06)
(-8.77286e-06 0 -6.66592e-06)
(-1.9702e-05 0 -2.09254e-05)
(-1.42686e-05 0 -4.84141e-05)
(2.53793e-06 0 -1.90095e-05)
(3.13941e-06 0 4.31809e-06)
(-2.64527e-06 0 4.60838e-06)
(-5.03625e-06 0 2.97888e-06)
(-6.07656e-06 0 9.55542e-07)
(-6.2295e-06 0 -1.30596e-06)
(-5.62463e-06 0 -1.85529e-06)
(-4.99776e-06 0 -1.28926e-06)
(-4.68704e-06 0 -8.12955e-07)
(-4.65398e-06 0 -6.56632e-07)
(-4.85522e-06 0 -6.90578e-07)
(-5.36075e-06 0 -3.09923e-07)
(-6.34577e-06 0 7.45227e-07)
(-7.01668e-06 0 4.91199e-07)
(-6.85586e-06 0 1.92514e-07)
(-6.57909e-06 0 2.46227e-07)
(-6.56196e-06 0 3.8991e-07)
(-6.7852e-06 0 5.38042e-07)
(-7.23999e-06 0 6.90284e-07)
(-8.16586e-06 0 1.0595e-06)
(-1.04394e-05 0 2.77675e-06)
(-1.56641e-05 0 8.59216e-06)
(-2.18433e-05 0 1.41553e-05)
(-2.33207e-05 0 1.21701e-05)
(-1.96957e-05 0 6.43974e-06)
(-1.5804e-05 0 1.13742e-06)
(-1.43453e-05 0 -1.65445e-06)
(-1.52834e-05 0 -6.93649e-07)
(-1.77437e-05 0 3.04271e-06)
(-1.99981e-05 0 5.45222e-06)
(-2.11658e-05 0 5.8538e-06)
(-2.24718e-05 0 6.06281e-06)
(-2.60164e-05 0 5.65566e-06)
(-3.35388e-05 0 -5.28018e-07)
(-4.43308e-05 0 -1.14623e-05)
(-5.32357e-05 0 -1.41857e-05)
(-5.65727e-05 0 -1.01504e-05)
(-5.82435e-05 0 -2.19755e-06)
(-6.41302e-05 0 5.65367e-06)
(-7.20498e-05 0 9.20621e-06)
(-7.35342e-05 0 9.83445e-06)
(-6.44799e-05 0 1.03771e-05)
(-4.7298e-05 0 5.1693e-06)
(-2.8275e-05 0 -1.40919e-05)
(-1.43751e-05 0 -1.84215e-05)
(-6.63065e-06 0 -1.31117e-05)
(-2.92114e-06 0 -6.26134e-06)
(-2.00812e-06 0 -3.7724e-06)
(-3.13874e-06 0 -3.79689e-06)
(-6.35218e-06 0 -3.74258e-06)
(-1.06493e-05 0 -2.69654e-06)
(-1.41349e-05 0 -1.56264e-06)
(-1.61996e-05 0 -1.15374e-06)
(-1.7409e-05 0 -7.07599e-07)
(-1.81529e-05 0 -4.66815e-08)
(-1.86795e-05 0 3.16413e-07)
(-1.8693e-05 0 5.1116e-07)
(-1.77862e-05 0 5.9158e-07)
(-1.5668e-05 0 4.21492e-07)
(-1.26413e-05 0 -1.74529e-07)
(-9.48939e-06 0 -8.21336e-07)
(-6.85955e-06 0 -9.81401e-07)
(-4.95738e-06 0 -7.46037e-07)
(-3.86057e-06 0 -4.44596e-08)
(-4.41246e-06 0 3.0919e-06)
(-6.19814e-06 0 1.07982e-05)
(-7.78524e-06 0 6.42301e-06)
(-1.11407e-05 0 -5.06007e-06)
(-1.57167e-05 0 -8.86551e-06)
(-1.88886e-05 0 -6.00063e-06)
(-1.77877e-05 0 1.57861e-05)
(-1.01109e-05 0 1.44064e-05)
(1.41092e-06 0 1.67133e-07)
(1.67416e-06 0 -2.48729e-05)
(-2.51114e-06 0 -3.2478e-06)
(-4.95334e-07 0 -1.62923e-06)
(-2.50858e-07 0 -8.41387e-07)
(-3.50116e-07 0 -5.03344e-07)
(-6.3936e-07 0 -3.42698e-07)
(-1.09052e-06 0 -2.46178e-07)
(-1.5668e-06 0 -2.01502e-07)
(-1.91176e-06 0 -2.23077e-07)
(-2.0788e-06 0 -3.44354e-07)
(-2.04063e-06 0 -6.52175e-07)
(-1.74966e-06 0 -1.19092e-06)
(-1.24743e-06 0 -1.73879e-06)
(-7.18944e-07 0 -2.01279e-06)
(-2.39833e-07 0 -2.27145e-06)
(6.46109e-07 0 -4.74909e-06)
(2.86e-06 0 -1.85577e-06)
(7.23714e-06 0 -1.39077e-06)
(1.38404e-05 0 -6.90423e-06)
(2.12029e-05 0 -1.00918e-05)
(3.01723e-05 0 -5.03814e-06)
(3.17735e-05 0 1.46578e-05)
(1.67251e-05 0 2.02048e-05)
(-3.40552e-06 0 1.37175e-05)
(-2.11438e-05 0 1.32141e-05)
(-4.80753e-05 0 2.55923e-05)
(-7.69758e-05 0 1.11837e-05)
(-7.37946e-05 0 -0.000367892)
(-0.000105668 0 0.000147455)
(0.000123398 0 0.000398679)
(0.000349011 0 -5.58963e-05)
(0.00014139 0 -0.00020717)
(-3.99095e-05 0 -5.76265e-05)
(-3.74578e-05 0 3.96601e-05)
(-9.42196e-06 0 3.99573e-05)
(-8.11489e-06 0 8.19853e-06)
(-7.9682e-06 0 -3.0703e-06)
(-5.60602e-06 0 -2.11098e-06)
(-4.28696e-06 0 -1.01728e-07)
(-3.77245e-06 0 1.24222e-06)
(-3.48455e-06 0 1.83582e-06)
(-3.05188e-06 0 1.22026e-06)
(-2.43803e-06 0 -4.57713e-07)
(-1.94822e-06 0 -2.13551e-06)
(-1.80805e-06 0 -3.94258e-06)
(-2.08759e-06 0 -6.73786e-06)
(-2.8781e-06 0 -9.33066e-06)
(-4.31377e-06 0 -8.73311e-06)
(-6.2375e-06 0 -5.9483e-06)
(-8.15297e-06 0 -4.72523e-06)
(-9.75433e-06 0 -5.66087e-06)
(-1.05242e-05 0 -7.78073e-06)
(-9.79908e-06 0 -9.04388e-06)
(-7.93465e-06 0 -9.39122e-06)
(-4.95765e-06 0 -1.15891e-05)
(-5.50437e-07 0 -1.34333e-05)
(1.28095e-06 0 -5.14685e-06)
(-5.76425e-06 0 1.14911e-05)
(-1.81187e-05 0 2.25698e-05)
(-2.33737e-05 0 2.03346e-05)
(-1.89051e-05 0 1.34311e-05)
(-1.27188e-05 0 8.00162e-06)
(-9.38717e-06 0 4.48536e-06)
(-8.62511e-06 0 2.68974e-06)
(-9.79962e-06 0 1.96204e-06)
(-1.33811e-05 0 2.70769e-06)
(-2.12199e-05 0 8.38793e-06)
(-3.29251e-05 0 1.65842e-05)
(-4.29027e-05 0 1.6114e-05)
(-4.91578e-05 0 5.74376e-06)
(-5.6978e-05 0 -1.06447e-05)
(-6.60386e-05 0 -2.03188e-05)
(-7.34766e-05 0 -2.26762e-05)
(-7.50773e-05 0 -3.41724e-05)
(-6.49231e-05 0 -2.12068e-05)
(-4.87245e-05 0 -1.08292e-05)
(-3.40451e-05 0 -6.16619e-06)
(-2.18114e-05 0 -3.00581e-06)
(-1.27504e-05 0 6.59712e-07)
(-8.5471e-06 0 4.9098e-06)
(-8.69547e-06 0 6.41733e-06)
(-1.08e-05 0 5.86182e-06)
(-1.43885e-05 0 4.59945e-06)
(-2.16274e-05 0 1.94147e-06)
(-3.20217e-05 0 2.19388e-06)
(-3.9204e-05 0 -1.64379e-06)
(-4.25082e-05 0 -2.46154e-05)
(-4.07917e-05 0 -2.88699e-05)
(-3.10319e-05 0 -1.86838e-05)
(-1.97141e-05 0 -8.74457e-06)
(-1.24023e-05 0 -3.03298e-06)
(-8.9146e-06 0 -2.71195e-08)
(-7.61654e-06 0 2.28678e-06)
(-7.6374e-06 0 5.02277e-06)
(-9.02157e-06 0 8.77272e-06)
(-1.30537e-05 0 1.19246e-05)
(-3.24799e-05 0 -2.91567e-06)
(-1.94525e-05 0 6.28187e-05)
(-6.75032e-06 0 -1.19492e-05)
(-2.49163e-05 0 -3.41645e-07)
(-2.70104e-05 0 -4.62528e-06)
(-2.91691e-05 0 -8.35992e-06)
(-3.25187e-05 0 -1.11973e-05)
(-3.57743e-05 0 -1.19809e-05)
(-3.68521e-05 0 -9.72152e-06)
(-3.51231e-05 0 -5.47684e-06)
(-3.19005e-05 0 -1.90826e-06)
(-2.89701e-05 0 -7.84269e-07)
(-2.78564e-05 0 -1.99024e-06)
(-2.93556e-05 0 -3.95368e-06)
(-3.28418e-05 0 -5.23677e-06)
(-3.60354e-05 0 -4.19817e-06)
(-3.58375e-05 0 -2.13415e-06)
(-3.22938e-05 0 -2.97886e-06)
(-2.76019e-05 0 -2.96958e-06)
(-2.29913e-05 0 -4.01182e-06)
(-1.85461e-05 0 -4.68261e-06)
(-1.29659e-05 0 -2.74895e-06)
(-6.86326e-06 0 -2.80541e-07)
(-2.80101e-06 0 2.13322e-07)
(-1.22648e-06 0 -3.12703e-08)
(-8.00602e-07 0 -1.26524e-07)
(-8.06993e-07 0 -1.54922e-07)
(-1.58698e-06 0 4.44614e-08)
(-5.93727e-06 0 1.2115e-06)
(-1.78934e-05 0 -5.97375e-06)
(-5.58618e-07 0 -8.6292e-05)
(3.59385e-05 0 -3.46942e-05)
(2.50343e-05 0 3.00405e-05)
(-5.02e-06 0 1.45194e-05)
(-1.68607e-05 0 7.16204e-06)
(-2.37273e-05 0 4.5803e-06)
(-2.95316e-05 0 9.5914e-07)
(-3.20706e-05 0 -2.20931e-06)
(-3.01787e-05 0 -3.44352e-06)
(-2.54523e-05 0 -3.66729e-06)
(-2.09242e-05 0 -2.32635e-06)
(-1.82194e-05 0 -1.47321e-06)
(-1.72169e-05 0 6.1218e-08)
(-1.69385e-05 0 1.20325e-06)
(-1.42951e-05 0 -1.82781e-06)
(-9.9077e-06 0 -1.97331e-06)
(-6.81837e-06 0 -9.2771e-07)
(-5.03717e-06 0 -2.23301e-07)
(-3.90679e-06 0 2.48153e-07)
(-3.17823e-06 0 7.06459e-07)
(-2.9077e-06 0 1.69262e-06)
(-3.76307e-06 0 5.24864e-06)
(-7.56405e-06 0 1.50783e-05)
(-1.27718e-05 0 1.89397e-05)
(-1.78125e-05 0 1.37854e-05)
(-2.32909e-05 0 6.59547e-06)
(-2.87747e-05 0 2.52092e-06)
(-3.43277e-05 0 1.02122e-06)
(-3.7704e-05 0 9.26413e-07)
(-3.59708e-05 0 2.1452e-06)
(-3.10219e-05 0 3.65441e-06)
(-2.71773e-05 0 4.97177e-06)
(-2.62229e-05 0 7.2918e-06)
(-2.77826e-05 0 9.52486e-06)
(-3.0685e-05 0 6.02219e-06)
(-3.59118e-05 0 -1.99149e-06)
(-4.40608e-05 0 -6.59063e-06)
(-5.18849e-05 0 -6.56116e-06)
(-5.50208e-05 0 -9.35662e-07)
(-5.05176e-05 0 5.84152e-06)
(-4.01734e-05 0 6.66765e-06)
(-2.99445e-05 0 3.70049e-06)
(-2.3204e-05 0 7.89527e-07)
(-1.97462e-05 0 -5.79971e-06)
(-1.84917e-05 0 -2.33107e-05)
(-1.60895e-05 0 -2.54289e-05)
(-8.05693e-06 0 -2.18287e-05)
(-7.81494e-07 0 -8.4885e-06)
(4.38362e-07 0 -3.63236e-06)
(-5.69395e-07 0 -1.73736e-06)
(-2.53605e-06 0 -5.37159e-07)
(-4.17553e-06 0 1.26678e-07)
(-5.02638e-06 0 3.34155e-08)
(-5.58028e-06 0 -7.40466e-08)
(-6.01221e-06 0 -1.15257e-07)
(-6.05692e-06 0 1.65176e-07)
(-5.66092e-06 0 2.43357e-07)
(-5.20488e-06 0 1.54413e-07)
(-5.00471e-06 0 -1.45967e-07)
(-5.24929e-06 0 -7.00023e-07)
(-5.76556e-06 0 -1.54801e-06)
(-5.92978e-06 0 -2.41712e-06)
(-5.3531e-06 0 -2.56714e-06)
(-4.3664e-06 0 -2.01724e-06)
(-3.74133e-06 0 -4.51107e-07)
(-5.40728e-06 0 5.77809e-06)
(-7.37061e-06 0 1.19474e-05)
(-6.55431e-06 0 6.16206e-06)
(-7.31024e-06 0 -5.42078e-07)
(-1.25667e-05 0 -3.38331e-06)
(-1.84556e-05 0 -2.2565e-06)
(-1.49514e-05 0 7.56767e-06)
(-5.0952e-06 0 5.18147e-06)
(-1.68851e-06 0 -5.47116e-06)
(-4.0742e-06 0 -1.70601e-05)
(-3.79459e-06 0 -7.1188e-06)
(-1.07284e-06 0 -2.47698e-06)
(-3.91456e-07 0 -9.11619e-07)
(-3.59163e-07 0 -3.62228e-07)
(-4.31055e-07 0 -1.19318e-07)
(-4.27162e-07 0 -1.868e-08)
(-3.47919e-07 0 -2.79562e-08)
(-2.81793e-07 0 -1.13299e-07)
(-2.75077e-07 0 -2.88869e-07)
(-3.40808e-07 0 -6.74182e-07)
(-4.66278e-07 0 -1.32754e-06)
(-4.59759e-07 0 -2.10246e-06)
(-2.44993e-07 0 -2.38155e-06)
(-5.48171e-08 0 -2.56131e-06)
(-4.9427e-07 0 -3.34512e-06)
(4.94525e-07 0 -3.0085e-06)
(4.08933e-06 0 -4.07148e-06)
(6.80966e-06 0 -9.76296e-06)
(1.19888e-05 0 -1.62048e-05)
(3.63389e-05 0 -2.81647e-05)
(9.48435e-05 0 -1.63193e-05)
(0.000113277 0 5.60013e-05)
(1.11294e-05 0 0.000109515)
(-0.000129851 0 8.39759e-05)
(-0.00020187 0 5.61629e-05)
(-0.000157766 0 -3.79388e-05)
(-0.00015583 0 -0.000331905)
(-0.000133744 0 0.000110993)
(-7.66885e-06 0 7.10667e-05)
(3.85408e-05 0 -6.56735e-06)
(1.60166e-05 0 -3.15034e-05)
(-1.35642e-05 0 -2.71992e-05)
(-1.21004e-05 0 6.14632e-07)
(-3.96764e-06 0 3.83362e-05)
(-1.70387e-05 0 1.83497e-05)
(-2.20666e-05 0 -1.00118e-05)
(-1.35024e-05 0 -7.09445e-06)
(-9.5312e-06 0 -1.21426e-06)
(-9.71245e-06 0 1.17308e-06)
(-1.02024e-05 0 1.16775e-06)
(-9.1825e-06 0 -4.33512e-07)
(-7.08533e-06 0 -2.16304e-06)
(-5.17788e-06 0 -3.2483e-06)
(-3.96375e-06 0 -4.52775e-06)
(-3.1844e-06 0 -7.02145e-06)
(-2.87378e-06 0 -9.01804e-06)
(-3.24541e-06 0 -7.68491e-06)
(-3.92696e-06 0 -4.67767e-06)
(-4.74229e-06 0 -3.43453e-06)
(-5.97701e-06 0 -4.23896e-06)
(-7.81589e-06 0 -6.72745e-06)
(-9.56562e-06 0 -9.32354e-06)
(-9.84902e-06 0 -1.12046e-05)
(-2.22969e-06 0 -2.14722e-05)
(1.50855e-05 0 -2.74306e-05)
(1.99379e-05 0 -1.93875e-06)
(-1.04435e-06 0 3.08992e-05)
(-1.98328e-05 0 3.10361e-05)
(-2.23097e-05 0 2.00196e-05)
(-2.2093e-05 0 1.11062e-05)
(-2.58344e-05 0 9.4425e-06)
(-3.61342e-05 0 1.07963e-05)
(-5.52825e-05 0 1.48884e-05)
(-8.31505e-05 0 1.78239e-05)
(-0.000111819 0 1.64181e-05)
(-0.000130861 0 1.78091e-05)
(-0.000133915 0 1.91879e-05)
(-0.0001241 0 1.28616e-05)
(-0.000113707 0 4.92072e-06)
(-0.000112143 0 -3.73515e-06)
(-0.000120349 0 -1.10716e-05)
(-0.0001321 0 -1.45473e-05)
(-0.000145928 0 -2.81956e-05)
(-0.000154628 0 -2.88906e-05)
(-0.000147344 0 -2.61717e-05)
(-0.000126577 0 -2.56612e-05)
(-9.74132e-05 0 -2.42937e-05)
(-6.84933e-05 0 -1.55006e-05)
(-6.14115e-05 0 1.01518e-05)
(-7.7242e-05 0 1.71895e-05)
(-8.89367e-05 0 8.29787e-06)
(-8.87506e-05 0 4.05979e-06)
(-8.59521e-05 0 4.30931e-06)
(-8.02594e-05 0 1.0814e-06)
(-6.83626e-05 0 -8.54089e-06)
(-6.03407e-05 0 -2.50051e-05)
(-5.91731e-05 0 -3.33255e-05)
(-5.30072e-05 0 -3.16645e-05)
(-3.92186e-05 0 -2.19793e-05)
(-2.61359e-05 0 -1.08815e-05)
(-1.89855e-05 0 -3.21304e-06)
(-1.69654e-05 0 1.93039e-06)
(-1.80436e-05 0 6.34424e-06)
(-2.03129e-05 0 1.10166e-05)
(-2.20584e-05 0 1.53699e-05)
(-2.46127e-05 0 1.54812e-05)
(-1.94632e-05 0 2.6017e-05)
(-1.52861e-05 0 7.80913e-06)
(-1.94841e-05 0 2.28724e-06)
(-2.13855e-05 0 -3.06096e-06)
(-2.23532e-05 0 -6.55748e-06)
(-2.24322e-05 0 -9.47431e-06)
(-2.13421e-05 0 -1.18385e-05)
(-1.89457e-05 0 -1.19977e-05)
(-1.56042e-05 0 -9.26394e-06)
(-1.23661e-05 0 -5.34474e-06)
(-1.02799e-05 0 -2.76984e-06)
(-9.57059e-06 0 -2.00163e-06)
(-9.95326e-06 0 -2.14019e-06)
(-1.11648e-05 0 -2.43948e-06)
(-1.28932e-05 0 -2.2744e-06)
(-1.47963e-05 0 -2.75559e-06)
(-1.71097e-05 0 -4.11691e-06)
(-1.91992e-05 0 -4.91546e-06)
(-1.92257e-05 0 -7.02182e-06)
(-1.59379e-05 0 -9.68492e-06)
(-9.92009e-06 0 -9.52534e-06)
(-4.44169e-06 0 -5.16799e-06)
(-1.77343e-06 0 -1.65395e-06)
(-9.88342e-07 0 -5.29615e-07)
(-8.29655e-07 0 -2.14777e-07)
(-1.02424e-06 0 1.32398e-07)
(-2.71356e-06 0 2.22165e-06)
(-1.46434e-05 0 1.5298e-05)
(-3.64579e-05 0 1.36459e-05)
(1.75514e-05 0 -0.000177442)
(0.000130904 0 -9.3812e-05)
(8.16699e-05 0 0.000148702)
(-5.18172e-05 0 5.88531e-05)
(-9.72583e-05 0 1.97291e-05)
(-0.00010801 0 9.35722e-06)
(-0.000108287 0 2.03395e-06)
(-0.000103127 0 -6.10569e-06)
(-9.34985e-05 0 -1.1239e-05)
(-7.98947e-05 0 -1.4279e-05)
(-6.37983e-05 0 -1.23253e-05)
(-4.74578e-05 0 -1.04262e-05)
(-3.28469e-05 0 -6.43109e-06)
(-2.2026e-05 0 -3.22027e-06)
(-1.449e-05 0 -7.44926e-06)
(-9.15387e-06 0 -6.01399e-06)
(-6.10376e-06 0 -3.0042e-06)
(-4.62956e-06 0 -1.39504e-06)
(-3.79784e-06 0 -5.39757e-07)
(-3.23599e-06 0 2.03858e-07)
(-3.00431e-06 0 1.69024e-06)
(-4.2063e-06 0 7.29787e-06)
(-1.02933e-05 0 2.28844e-05)
(-1.46854e-05 0 2.06698e-05)
(-1.71568e-05 0 1.94946e-05)
(-2.40833e-05 0 1.32344e-05)
(-3.10247e-05 0 8.26843e-06)
(-3.43653e-05 0 4.142e-06)
(-3.25289e-05 0 -6.62356e-07)
(-2.76671e-05 0 -2.85505e-06)
(-2.3473e-05 0 -4.79043e-07)
(-2.17954e-05 0 3.59441e-06)
(-2.17283e-05 0 7.66308e-06)
(-1.96973e-05 0 8.69903e-06)
(-1.50211e-05 0 5.08371e-06)
(-1.18397e-05 0 9.94148e-07)
(-1.20138e-05 0 -1.25285e-06)
(-1.39356e-05 0 -2.14424e-06)
(-1.48511e-05 0 -1.27332e-06)
(-1.28844e-05 0 -2.51242e-07)
(-9.57656e-06 0 -8.57782e-07)
(-7.13648e-06 0 -1.4178e-06)
(-6.25216e-06 0 -1.69211e-06)
(-7.81724e-06 0 -5.1764e-06)
(-1.07781e-05 0 -2.21789e-05)
(-1.5041e-05 0 -2.46474e-05)
(-5.93837e-06 0 -3.97005e-05)
(5.68274e-06 0 -9.47748e-06)
(3.75417e-06 0 -1.90328e-06)
(1.1401e-06 0 1.84649e-07)
(-1.78825e-07 0 8.55006e-07)
(-4.22012e-07 0 6.41489e-07)
(-3.45132e-07 0 3.10823e-07)
(-2.87577e-07 0 1.56649e-07)
(-2.69947e-07 0 7.39863e-08)
(-2.71913e-07 0 2.49501e-08)
(-2.75573e-07 0 -8.00916e-09)
(-2.95109e-07 0 -2.75564e-08)
(-3.83801e-07 0 -6.98005e-08)
(-6.80186e-07 0 -2.24983e-07)
(-1.48602e-06 0 -6.82037e-07)
(-3.14018e-06 0 -1.42945e-06)
(-5.43596e-06 0 -1.78019e-06)
(-7.39911e-06 0 -1.74874e-06)
(-8.39578e-06 0 -2.56044e-07)
(-8.53189e-06 0 7.47011e-06)
(-6.20438e-06 0 9.96399e-06)
(-3.05197e-06 0 4.24214e-06)
(-2.18005e-06 0 1.32529e-06)
(-2.57457e-06 0 4.6035e-07)
(-3.11927e-06 0 3.84545e-07)
(-2.78963e-06 0 1.13208e-06)
(-1.70189e-06 0 7.06788e-07)
(-2.89446e-06 0 -3.1655e-06)
(-8.99734e-06 0 -1.08086e-05)
(-1.01901e-05 0 -1.23853e-05)
(-4.22102e-06 0 -5.85769e-06)
(-8.81999e-07 0 -1.53631e-06)
(-2.58933e-07 0 -3.89035e-07)
(-1.69024e-07 0 -1.08937e-07)
(-1.3798e-07 0 -6.29627e-08)
(-1.19349e-07 0 -8.06034e-08)
(-1.11098e-07 0 -1.33827e-07)
(-1.2433e-07 0 -2.59998e-07)
(-1.83782e-07 0 -5.74679e-07)
(-3.23102e-07 0 -1.15619e-06)
(-5.30122e-08 0 -2.54076e-06)
(5.64744e-07 0 -2.76218e-06)
(4.0897e-07 0 -2.20196e-06)
(-4.5232e-07 0 -1.67718e-06)